M 2.00000 0 (791.91, 650.52, 0.00), (46.26, 541.28), 2.08
M 2.00000 1 (137.68, 356.62, 0.00), (567.71, 182.61), 4.24
M 2.00000 2 (758.61, 629.93, 0.00), (81.68, 580.89), 5.15
M 2.00000 3 (220.85, 395.40, 0.00), (359.65, 98.88), 1.49
M 2.00000 4 (513.82, 99.24, 0.00), (382.21, 470.86), 0.51
s -t 10.000000000 -Hs 0 -Hd -2 -Ni 0 -Nx 775.42 -Ny 648.11 -Nz 0.00 -Ne -1.000000 -Nl AGT -Nw --- -Ma 0 -Md 0 -Ms 0 -Mt 0 -Is 0.0 -Id 1.0 -It tcp -Il 40 -If 1 -Ii 0 -Iv 32 -Pn tcp -Ps 0 -Pa 0 -Pf 0 -Po 0 
r -t 10.000000000 -Hs 0 -Hd -2 -Ni 0 -Nx 775.42 -Ny 648.11 -Nz 0.00 -Ne -1.000000 -Nl RTR -Nw --- -Ma 0 -Md 0 -Ms 0 -Mt 0 -Is 0.0 -Id 1.0 -It tcp -Il 40 -If 1 -Ii 0 -Iv 32 -Pn tcp -Ps 0 -Pa 0 -Pf 0 -Po 0 
s -t 10.000000000 -Hs 0 -Hd -2 -Ni 0 -Nx 775.42 -Ny 648.11 -Nz 0.00 -Ne -1.000000 -Nl RTR -Nw --- -Ma 0 -Md 0 -Ms 0 -Mt 0 -Is 0.255 -Id -1.255 -It AODV -Il 48 -If 0 -Ii 0 -Iv 30 -P aodv -Pt 0x2 -Ph 1 -Pb 1 -Pd 1 -Pds 0 -Ps 0 -Pss 4 -Pc REQUEST 
r -t 10.000988205 -Hs 2 -Hd -2 -Ni 2 -Nx 717.54 -Ny 626.95 -Nz 0.00 -Ne -1.000000 -Nl RTR -Nw --- -Ma 0 -Md ffffffff -Ms 0 -Mt 800 -Is 0.255 -Id -1.255 -It AODV -Il 48 -If 0 -Ii 0 -Iv 30 -P aodv -Pt 0x2 -Ph 1 -Pb 1 -Pd 1 -Pds 0 -Ps 0 -Pss 4 -Pc REQUEST 
s -t 10.001869432 -Hs 2 -Hd -2 -Ni 2 -Nx 717.54 -Ny 626.95 -Nz 0.00 -Ne -1.000000 -Nl RTR -Nw --- -Ma 0 -Md ffffffff -Ms 0 -Mt 800 -Is 2.255 -Id -1.255 -It AODV -Il 48 -If 0 -Ii 0 -Iv 29 -P aodv -Pt 0x2 -Ph 2 -Pb 1 -Pd 1 -Pds 0 -Ps 0 -Pss 4 -Pc REQUEST 
r -t 10.003137638 -Hs 0 -Hd -2 -Ni 0 -Nx 775.42 -Ny 648.10 -Nz 0.00 -Ne -1.000000 -Nl RTR -Nw --- -Ma 0 -Md ffffffff -Ms 2 -Mt 800 -Is 2.255 -Id -1.255 -It AODV -Il 48 -If 0 -Ii 0 -Iv 29 -P aodv -Pt 0x2 -Ph 2 -Pb 1 -Pd 1 -Pds 0 -Ps 0 -Pss 4 -Pc REQUEST 
s -t 12.000000000 -Hs 0 -Hd -2 -Ni 0 -Nx 771.30 -Ny 647.50 -Nz 0.00 -Ne -1.000000 -Nl RTR -Nw --- -Ma 0 -Md 0 -Ms 0 -Mt 0 -Is 0.255 -Id -1.255 -It AODV -Il 48 -If 0 -Ii 0 -Iv 30 -P aodv -Pt 0x2 -Ph 1 -Pb 2 -Pd 1 -Pds 0 -Ps 0 -Pss 6 -Pc REQUEST 
r -t 12.001108225 -Hs 2 -Hd -2 -Ni 2 -Nx 707.27 -Ny 626.21 -Nz 0.00 -Ne -1.000000 -Nl RTR -Nw --- -Ma 0 -Md ffffffff -Ms 0 -Mt 800 -Is 0.255 -Id -1.255 -It AODV -Il 48 -If 0 -Ii 0 -Iv 30 -P aodv -Pt 0x2 -Ph 1 -Pb 2 -Pd 1 -Pds 0 -Ps 0 -Pss 6 -Pc REQUEST 
s -t 12.003454242 -Hs 2 -Hd -2 -Ni 2 -Nx 707.26 -Ny 626.21 -Nz 0.00 -Ne -1.000000 -Nl RTR -Nw --- -Ma 0 -Md ffffffff -Ms 0 -Mt 800 -Is 2.255 -Id -1.255 -It AODV -Il 48 -If 0 -Ii 0 -Iv 29 -P aodv -Pt 0x2 -Ph 2 -Pb 2 -Pd 1 -Pds 0 -Ps 0 -Pss 6 -Pc REQUEST 
r -t 12.004762467 -Hs 0 -Hd -2 -Ni 0 -Nx 771.29 -Ny 647.50 -Nz 0.00 -Ne -1.000000 -Nl RTR -Nw --- -Ma 0 -Md ffffffff -Ms 2 -Mt 800 -Is 2.255 -Id -1.255 -It AODV -Il 48 -If 0 -Ii 0 -Iv 29 -P aodv -Pt 0x2 -Ph 2 -Pb 2 -Pd 1 -Pds 0 -Ps 0 -Pss 6 -Pc REQUEST 
s -t 13.000000000 -Hs 0 -Hd -2 -Ni 0 -Nx 769.24 -Ny 647.20 -Nz 0.00 -Ne -1.000000 -Nl AGT -Nw --- -Ma 0 -Md 0 -Ms 0 -Mt 0 -Is 0.0 -Id 1.0 -It tcp -Il 40 -If 1 -Ii 1 -Iv 32 -Pn tcp -Ps 0 -Pa 0 -Pf 0 -Po 0 
r -t 13.000000000 -Hs 0 -Hd -2 -Ni 0 -Nx 769.24 -Ny 647.20 -Nz 0.00 -Ne -1.000000 -Nl RTR -Nw --- -Ma 0 -Md 0 -Ms 0 -Mt 0 -Is 0.0 -Id 1.0 -It tcp -Il 40 -If 1 -Ii 1 -Iv 32 -Pn tcp -Ps 0 -Pa 0 -Pf 0 -Po 0 
s -t 16.000000000 -Hs 0 -Hd -2 -Ni 0 -Nx 763.06 -Ny 646.29 -Nz 0.00 -Ne -1.000000 -Nl RTR -Nw --- -Ma 0 -Md 0 -Ms 0 -Mt 0 -Is 0.255 -Id -1.255 -It AODV -Il 48 -If 0 -Ii 0 -Iv 30 -P aodv -Pt 0x2 -Ph 1 -Pb 3 -Pd 1 -Pds 0 -Ps 0 -Pss 8 -Pc REQUEST 
r -t 16.001188264 -Hs 2 -Hd -2 -Ni 2 -Nx 686.74 -Ny 624.72 -Nz 0.00 -Ne -1.000000 -Nl RTR -Nw --- -Ma 0 -Md ffffffff -Ms 0 -Mt 800 -Is 0.255 -Id -1.255 -It AODV -Il 48 -If 0 -Ii 0 -Iv 30 -P aodv -Pt 0x2 -Ph 1 -Pb 3 -Pd 1 -Pds 0 -Ps 0 -Pss 8 -Pc REQUEST 
s -t 16.001616210 -Hs 2 -Hd -2 -Ni 2 -Nx 686.74 -Ny 624.72 -Nz 0.00 -Ne -1.000000 -Nl RTR -Nw --- -Ma 0 -Md ffffffff -Ms 0 -Mt 800 -Is 2.255 -Id -1.255 -It AODV -Il 48 -If 0 -Ii 0 -Iv 29 -P aodv -Pt 0x2 -Ph 2 -Pb 3 -Pd 1 -Pds 0 -Ps 0 -Pss 8 -Pc REQUEST 
r -t 16.002724474 -Hs 0 -Hd -2 -Ni 0 -Nx 763.06 -Ny 646.29 -Nz 0.00 -Ne -1.000000 -Nl RTR -Nw --- -Ma 0 -Md ffffffff -Ms 2 -Mt 800 -Is 2.255 -Id -1.255 -It AODV -Il 48 -If 0 -Ii 0 -Iv 29 -P aodv -Pt 0x2 -Ph 2 -Pb 3 -Pd 1 -Pds 0 -Ps 0 -Pss 8 -Pc REQUEST 
s -t 19.000000000 -Hs 0 -Hd -2 -Ni 0 -Nx 756.88 -Ny 645.39 -Nz 0.00 -Ne -1.000000 -Nl AGT -Nw --- -Ma 0 -Md 0 -Ms 0 -Mt 0 -Is 0.0 -Id 1.0 -It tcp -Il 40 -If 1 -Ii 2 -Iv 32 -Pn tcp -Ps 0 -Pa 0 -Pf 0 -Po 0 
r -t 19.000000000 -Hs 0 -Hd -2 -Ni 0 -Nx 756.88 -Ny 645.39 -Nz 0.00 -Ne -1.000000 -Nl RTR -Nw --- -Ma 0 -Md 0 -Ms 0 -Mt 0 -Is 0.0 -Id 1.0 -It tcp -Il 40 -If 1 -Ii 2 -Iv 32 -Pn tcp -Ps 0 -Pa 0 -Pf 0 -Po 0 
s -t 21.500000000 -Hs 0 -Hd -2 -Ni 0 -Nx 751.73 -Ny 644.63 -Nz 0.00 -Ne -1.000000 -Nl RTR -Nw --- -Ma 0 -Md 0 -Ms 0 -Mt 0 -Is 0.255 -Id -1.255 -It AODV -Il 48 -If 0 -Ii 0 -Iv 30 -P aodv -Pt 0x2 -Ph 1 -Pb 4 -Pd 1 -Pds 0 -Ps 0 -Pss 10 -Pc REQUEST 
r -t 21.501188319 -Hs 2 -Hd -2 -Ni 2 -Nx 658.51 -Ny 622.67 -Nz 0.00 -Ne -1.000000 -Nl RTR -Nw --- -Ma 0 -Md ffffffff -Ms 0 -Mt 800 -Is 0.255 -Id -1.255 -It AODV -Il 48 -If 0 -Ii 0 -Iv 30 -P aodv -Pt 0x2 -Ph 1 -Pb 4 -Pd 1 -Pds 0 -Ps 0 -Pss 10 -Pc REQUEST 
s -t 21.502936372 -Hs 2 -Hd -2 -Ni 2 -Nx 658.50 -Ny 622.67 -Nz 0.00 -Ne -1.000000 -Nl RTR -Nw --- -Ma 0 -Md ffffffff -Ms 0 -Mt 800 -Is 2.255 -Id -1.255 -It AODV -Il 48 -If 0 -Ii 0 -Iv 29 -P aodv -Pt 0x2 -Ph 2 -Pb 4 -Pd 1 -Pds 0 -Ps 0 -Pss 10 -Pc REQUEST 
r -t 21.504224691 -Hs 0 -Hd -2 -Ni 0 -Nx 751.72 -Ny 644.63 -Nz 0.00 -Ne -1.000000 -Nl RTR -Nw --- -Ma 0 -Md ffffffff -Ms 2 -Mt 800 -Is 2.255 -Id -1.255 -It AODV -Il 48 -If 0 -Ii 0 -Iv 29 -P aodv -Pt 0x2 -Ph 2 -Pb 4 -Pd 1 -Pds 0 -Ps 0 -Pss 10 -Pc REQUEST 
d -t 29.000000000 -Hs 0 -Hd -2 -Ni 0 -Nx 736.28 -Ny 642.37 -Nz 0.00 -Ne -1.000000 -Nl RTR -Nw NRTE -Ma 0 -Md 0 -Ms 0 -Mt 0 -Is 0.0 -Id 1.0 -It tcp -Il 40 -If 1 -Ii 0 -Iv 30 -Pn tcp -Ps 0 -Pa 0 -Pf 0 -Po 0 
d -t 29.000000000 -Hs 0 -Hd -2 -Ni 0 -Nx 736.28 -Ny 642.37 -Nz 0.00 -Ne -1.000000 -Nl RTR -Nw NRTE -Ma 0 -Md 0 -Ms 0 -Mt 0 -Is 0.0 -Id 1.0 -It tcp -Il 40 -If 1 -Ii 1 -Iv 30 -Pn tcp -Ps 0 -Pa 0 -Pf 0 -Po 0 
d -t 29.000000000 -Hs 0 -Hd -2 -Ni 0 -Nx 736.28 -Ny 642.37 -Nz 0.00 -Ne -1.000000 -Nl RTR -Nw NRTE -Ma 0 -Md 0 -Ms 0 -Mt 0 -Is 0.0 -Id 1.0 -It tcp -Il 40 -If 1 -Ii 2 -Iv 30 -Pn tcp -Ps 0 -Pa 0 -Pf 0 -Po 0 
s -t 31.000000000 -Hs 0 -Hd -2 -Ni 0 -Nx 732.16 -Ny 641.77 -Nz 0.00 -Ne -1.000000 -Nl AGT -Nw --- -Ma 0 -Md 0 -Ms 0 -Mt 0 -Is 0.0 -Id 1.0 -It tcp -Il 40 -If 1 -Ii 3 -Iv 32 -Pn tcp -Ps 0 -Pa 0 -Pf 0 -Po 0 
r -t 31.000000000 -Hs 0 -Hd -2 -Ni 0 -Nx 732.16 -Ny 641.77 -Nz 0.00 -Ne -1.000000 -Nl RTR -Nw --- -Ma 0 -Md 0 -Ms 0 -Mt 0 -Is 0.0 -Id 1.0 -It tcp -Il 40 -If 1 -Ii 3 -Iv 32 -Pn tcp -Ps 0 -Pa 0 -Pf 0 -Po 0 
s -t 39.000000000 -Hs 0 -Hd -2 -Ni 0 -Nx 715.67 -Ny 639.35 -Nz 0.00 -Ne -1.000000 -Nl RTR -Nw --- -Ma 0 -Md 0 -Ms 0 -Mt 0 -Is 0.255 -Id -1.255 -It AODV -Il 48 -If 0 -Ii 0 -Iv 30 -P aodv -Pt 0x2 -Ph 1 -Pb 5 -Pd 1 -Pds 0 -Ps 0 -Pss 12 -Pc REQUEST 
r -t 39.001148496 -Hs 2 -Hd -2 -Ni 2 -Nx 568.68 -Ny 616.17 -Nz 0.00 -Ne -1.000000 -Nl RTR -Nw --- -Ma 0 -Md ffffffff -Ms 0 -Mt 800 -Is 0.255 -Id -1.255 -It AODV -Il 48 -If 0 -Ii 0 -Iv 30 -P aodv -Pt 0x2 -Ph 1 -Pb 5 -Pd 1 -Pds 0 -Ps 0 -Pss 12 -Pc REQUEST 
s -t 39.005235353 -Hs 2 -Hd -2 -Ni 2 -Nx 568.66 -Ny 616.17 -Nz 0.00 -Ne -1.000000 -Nl RTR -Nw --- -Ma 0 -Md ffffffff -Ms 0 -Mt 800 -Is 2.255 -Id -1.255 -It AODV -Il 48 -If 0 -Ii 0 -Iv 29 -P aodv -Pt 0x2 -Ph 2 -Pb 5 -Pd 1 -Pds 0 -Ps 0 -Pss 12 -Pc REQUEST 
r -t 39.006423849 -Hs 0 -Hd -2 -Ni 0 -Nx 715.66 -Ny 639.35 -Nz 0.00 -Ne -1.000000 -Nl RTR -Nw --- -Ma 0 -Md ffffffff -Ms 2 -Mt 800 -Is 2.255 -Id -1.255 -It AODV -Il 48 -If 0 -Ii 0 -Iv 29 -P aodv -Pt 0x2 -Ph 2 -Pb 5 -Pd 1 -Pds 0 -Ps 0 -Pss 12 -Pc REQUEST 
s -t 41.000000000 -Hs 0 -Hd -2 -Ni 0 -Nx 711.55 -Ny 638.75 -Nz 0.00 -Ne -1.000000 -Nl RTR -Nw --- -Ma 0 -Md 0 -Ms 0 -Mt 0 -Is 0.255 -Id -1.255 -It AODV -Il 48 -If 0 -Ii 0 -Iv 30 -P aodv -Pt 0x2 -Ph 1 -Pb 6 -Pd 1 -Pds 0 -Ps 0 -Pss 14 -Pc REQUEST 
r -t 41.001128516 -Hs 2 -Hd -2 -Ni 2 -Nx 558.41 -Ny 615.42 -Nz 0.00 -Ne -1.000000 -Nl RTR -Nw --- -Ma 0 -Md ffffffff -Ms 0 -Mt 800 -Is 0.255 -Id -1.255 -It AODV -Il 48 -If 0 -Ii 0 -Iv 30 -P aodv -Pt 0x2 -Ph 1 -Pb 6 -Pd 1 -Pds 0 -Ps 0 -Pss 14 -Pc REQUEST 
s -t 41.009526768 -Hs 2 -Hd -2 -Ni 2 -Nx 558.37 -Ny 615.42 -Nz 0.00 -Ne -1.000000 -Nl RTR -Nw --- -Ma 0 -Md ffffffff -Ms 0 -Mt 800 -Is 2.255 -Id -1.255 -It AODV -Il 48 -If 0 -Ii 0 -Iv 29 -P aodv -Pt 0x2 -Ph 2 -Pb 6 -Pd 1 -Pds 0 -Ps 0 -Pss 14 -Pc REQUEST 
r -t 41.011015285 -Hs 0 -Hd -2 -Ni 0 -Nx 711.53 -Ny 638.74 -Nz 0.00 -Ne -1.000000 -Nl RTR -Nw --- -Ma 0 -Md ffffffff -Ms 2 -Mt 800 -Is 2.255 -Id -1.255 -It AODV -Il 48 -If 0 -Ii 0 -Iv 29 -P aodv -Pt 0x2 -Ph 2 -Pb 6 -Pd 1 -Pds 0 -Ps 0 -Pss 14 -Pc REQUEST 
s -t 45.000000000 -Hs 0 -Hd -2 -Ni 0 -Nx 703.31 -Ny 637.54 -Nz 0.00 -Ne -1.000000 -Nl RTR -Nw --- -Ma 0 -Md 0 -Ms 0 -Mt 0 -Is 0.255 -Id -1.255 -It AODV -Il 48 -If 0 -Ii 0 -Iv 30 -P aodv -Pt 0x2 -Ph 1 -Pb 7 -Pd 1 -Pds 0 -Ps 0 -Pss 16 -Pc REQUEST 
r -t 45.000988557 -Hs 2 -Hd -2 -Ni 2 -Nx 537.88 -Ny 613.94 -Nz 0.00 -Ne -1.000000 -Nl RTR -Nw --- -Ma 0 -Md ffffffff -Ms 0 -Mt 800 -Is 0.255 -Id -1.255 -It AODV -Il 48 -If 0 -Ii 0 -Iv 30 -P aodv -Pt 0x2 -Ph 1 -Pb 7 -Pd 1 -Pds 0 -Ps 0 -Pss 16 -Pc REQUEST 
s -t 45.008610876 -Hs 2 -Hd -2 -Ni 2 -Nx 537.84 -Ny 613.93 -Nz 0.00 -Ne -1.000000 -Nl RTR -Nw --- -Ma 0 -Md ffffffff -Ms 0 -Mt 800 -Is 2.255 -Id -1.255 -It AODV -Il 48 -If 0 -Ii 0 -Iv 29 -P aodv -Pt 0x2 -Ph 2 -Pb 7 -Pd 1 -Pds 0 -Ps 0 -Pss 16 -Pc REQUEST 
r -t 45.009699433 -Hs 0 -Hd -2 -Ni 0 -Nx 703.29 -Ny 637.54 -Nz 0.00 -Ne -1.000000 -Nl RTR -Nw --- -Ma 0 -Md ffffffff -Ms 2 -Mt 800 -Is 2.255 -Id -1.255 -It AODV -Il 48 -If 0 -Ii 0 -Iv 29 -P aodv -Pt 0x2 -Ph 2 -Pb 7 -Pd 1 -Pds 0 -Ps 0 -Pss 16 -Pc REQUEST 
s -t 50.500000000 -Hs 0 -Hd -2 -Ni 0 -Nx 691.98 -Ny 635.88 -Nz 0.00 -Ne -1.000000 -Nl RTR -Nw --- -Ma 0 -Md 0 -Ms 0 -Mt 0 -Is 0.255 -Id -1.255 -It AODV -Il 48 -If 0 -Ii 0 -Iv 30 -P aodv -Pt 0x2 -Ph 1 -Pb 8 -Pd 1 -Pds 0 -Ps 0 -Pss 18 -Pc REQUEST 
r -t 50.501228613 -Hs 2 -Hd -2 -Ni 2 -Nx 509.64 -Ny 611.89 -Nz 0.00 -Ne -1.000000 -Nl RTR -Nw --- -Ma 0 -Md ffffffff -Ms 0 -Mt 800 -Is 0.255 -Id -1.255 -It AODV -Il 48 -If 0 -Ii 0 -Iv 30 -P aodv -Pt 0x2 -Ph 1 -Pb 8 -Pd 1 -Pds 0 -Ps 0 -Pss 18 -Pc REQUEST 
s -t 50.503102265 -Hs 2 -Hd -2 -Ni 2 -Nx 509.63 -Ny 611.89 -Nz 0.00 -Ne -1.000000 -Nl RTR -Nw --- -Ma 0 -Md ffffffff -Ms 0 -Mt 800 -Is 2.255 -Id -1.255 -It AODV -Il 48 -If 0 -Ii 0 -Iv 29 -P aodv -Pt 0x2 -Ph 2 -Pb 8 -Pd 1 -Pds 0 -Ps 0 -Pss 18 -Pc REQUEST 
r -t 50.504570878 -Hs 0 -Hd -2 -Ni 0 -Nx 691.97 -Ny 635.88 -Nz 0.00 -Ne -1.000000 -Nl RTR -Nw --- -Ma 0 -Md ffffffff -Ms 2 -Mt 800 -Is 2.255 -Id -1.255 -It AODV -Il 48 -If 0 -Ii 0 -Iv 29 -P aodv -Pt 0x2 -Ph 2 -Pb 8 -Pd 1 -Pds 0 -Ps 0 -Pss 18 -Pc REQUEST 
s -t 55.000000000 -Hs 0 -Hd -2 -Ni 0 -Nx 682.71 -Ny 634.52 -Nz 0.00 -Ne -1.000000 -Nl AGT -Nw --- -Ma 0 -Md 0 -Ms 0 -Mt 0 -Is 0.0 -Id 1.0 -It tcp -Il 40 -If 1 -Ii 4 -Iv 32 -Pn tcp -Ps 0 -Pa 0 -Pf 0 -Po 0 
r -t 55.000000000 -Hs 0 -Hd -2 -Ni 0 -Nx 682.71 -Ny 634.52 -Nz 0.00 -Ne -1.000000 -Nl RTR -Nw --- -Ma 0 -Md 0 -Ms 0 -Mt 0 -Is 0.0 -Id 1.0 -It tcp -Il 40 -If 1 -Ii 4 -Iv 32 -Pn tcp -Ps 0 -Pa 0 -Pf 0 -Po 0 
d -t 58.000000000 -Hs 0 -Hd -2 -Ni 0 -Nx 676.53 -Ny 633.62 -Nz 0.00 -Ne -1.000000 -Nl RTR -Nw NRTE -Ma 0 -Md 0 -Ms 0 -Mt 0 -Is 0.0 -Id 1.0 -It tcp -Il 40 -If 1 -Ii 3 -Iv 30 -Pn tcp -Ps 0 -Pa 0 -Pf 0 -Po 0 
d -t 58.000000000 -Hs 0 -Hd -2 -Ni 0 -Nx 676.53 -Ny 633.62 -Nz 0.00 -Ne -1.000000 -Nl RTR -Nw NRTE -Ma 0 -Md 0 -Ms 0 -Mt 0 -Is 0.0 -Id 1.0 -It tcp -Il 40 -If 1 -Ii 4 -Iv 30 -Pn tcp -Ps 0 -Pa 0 -Pf 0 -Po 0 
s -t 103.000000000 -Hs 0 -Hd -2 -Ni 0 -Nx 583.81 -Ny 620.03 -Nz 0.00 -Ne -1.000000 -Nl AGT -Nw --- -Ma 0 -Md 0 -Ms 0 -Mt 0 -Is 0.0 -Id 1.0 -It tcp -Il 40 -If 1 -Ii 5 -Iv 32 -Pn tcp -Ps 0 -Pa 0 -Pf 0 -Po 0 
r -t 103.000000000 -Hs 0 -Hd -2 -Ni 0 -Nx 583.81 -Ny 620.03 -Nz 0.00 -Ne -1.000000 -Nl RTR -Nw --- -Ma 0 -Md 0 -Ms 0 -Mt 0 -Is 0.0 -Id 1.0 -It tcp -Il 40 -If 1 -Ii 5 -Iv 32 -Pn tcp -Ps 0 -Pa 0 -Pf 0 -Po 0 
s -t 103.000000000 -Hs 0 -Hd -2 -Ni 0 -Nx 583.81 -Ny 620.03 -Nz 0.00 -Ne -1.000000 -Nl RTR -Nw --- -Ma 0 -Md 0 -Ms 0 -Mt 0 -Is 0.255 -Id -1.255 -It AODV -Il 48 -If 0 -Ii 0 -Iv 30 -P aodv -Pt 0x2 -Ph 1 -Pb 9 -Pd 1 -Pds 0 -Ps 0 -Pss 20 -Pc REQUEST 
s -t 105.000000000 -Hs 0 -Hd -2 -Ni 0 -Nx 579.69 -Ny 619.43 -Nz 0.00 -Ne -1.000000 -Nl RTR -Nw --- -Ma 0 -Md 0 -Ms 0 -Mt 0 -Is 0.255 -Id -1.255 -It AODV -Il 48 -If 0 -Ii 0 -Iv 30 -P aodv -Pt 0x2 -Ph 1 -Pb 10 -Pd 1 -Pds 0 -Ps 0 -Pss 22 -Pc REQUEST 
s -t 109.000000000 -Hs 0 -Hd -2 -Ni 0 -Nx 571.45 -Ny 618.22 -Nz 0.00 -Ne -1.000000 -Nl RTR -Nw --- -Ma 0 -Md 0 -Ms 0 -Mt 0 -Is 0.255 -Id -1.255 -It AODV -Il 48 -If 0 -Ii 0 -Iv 30 -P aodv -Pt 0x2 -Ph 1 -Pb 11 -Pd 1 -Pds 0 -Ps 0 -Pss 24 -Pc REQUEST 
M 111.28338 1 (567.71, 182.61, 0.00), (567.71, 182.61), 0.00
M 113.28338 1 (567.71, 182.61, 0.00), (474.58, 268.00), 1.45
s -t 114.500000000 -Hs 0 -Hd -2 -Ni 0 -Nx 560.12 -Ny 616.56 -Nz 0.00 -Ne -1.000000 -Nl RTR -Nw --- -Ma 0 -Md 0 -Ms 0 -Mt 0 -Is 0.255 -Id -1.255 -It AODV -Il 48 -If 0 -Ii 0 -Iv 30 -P aodv -Pt 0x2 -Ph 1 -Pb 12 -Pd 1 -Pds 0 -Ps 0 -Pss 26 -Pc REQUEST 
d -t 122.000000000 -Hs 0 -Hd -2 -Ni 0 -Nx 544.66 -Ny 614.30 -Nz 0.00 -Ne -1.000000 -Nl RTR -Nw NRTE -Ma 0 -Md 0 -Ms 0 -Mt 0 -Is 0.0 -Id 1.0 -It tcp -Il 40 -If 1 -Ii 5 -Iv 30 -Pn tcp -Ps 0 -Pa 0 -Pf 0 -Po 0 
M 133.87305 2 (81.68, 580.89, 0.00), (81.68, 580.89), 0.00
M 135.87305 2 (81.68, 580.89, 0.00), (681.30, 256.93), 7.89
s -t 163.000000000 -Hs 0 -Hd -2 -Ni 0 -Nx 460.19 -Ny 601.92 -Nz 0.00 -Ne -1.000000 -Nl AGT -Nw --- -Ma 0 -Md 0 -Ms 0 -Mt 0 -Is 0.0 -Id 1.0 -It tcp -Il 40 -If 1 -Ii 6 -Iv 32 -Pn tcp -Ps 0 -Pa 0 -Pf 0 -Po 0 
r -t 163.000000000 -Hs 0 -Hd -2 -Ni 0 -Nx 460.19 -Ny 601.92 -Nz 0.00 -Ne -1.000000 -Nl RTR -Nw --- -Ma 0 -Md 0 -Ms 0 -Mt 0 -Is 0.0 -Id 1.0 -It tcp -Il 40 -If 1 -Ii 6 -Iv 32 -Pn tcp -Ps 0 -Pa 0 -Pf 0 -Po 0 
s -t 163.000000000 -Hs 0 -Hd -2 -Ni 0 -Nx 460.19 -Ny 601.92 -Nz 0.00 -Ne -1.000000 -Nl RTR -Nw --- -Ma 0 -Md 0 -Ms 0 -Mt 0 -Is 0.255 -Id -1.255 -It AODV -Il 48 -If 0 -Ii 0 -Iv 30 -P aodv -Pt 0x2 -Ph 1 -Pb 13 -Pd 1 -Pds 0 -Ps 0 -Pss 28 -Pc REQUEST 
r -t 163.001228755 -Hs 2 -Hd -2 -Ni 2 -Nx 270.03 -Ny 479.13 -Nz 0.00 -Ne -1.000000 -Nl RTR -Nw --- -Ma 0 -Md ffffffff -Ms 0 -Mt 800 -Is 0.255 -Id -1.255 -It AODV -Il 48 -If 0 -Ii 0 -Iv 30 -P aodv -Pt 0x2 -Ph 1 -Pb 13 -Pd 1 -Pds 0 -Ps 0 -Pss 28 -Pc REQUEST 
s -t 163.006676974 -Hs 2 -Hd -2 -Ni 2 -Nx 270.07 -Ny 479.11 -Nz 0.00 -Ne -1.000000 -Nl RTR -Nw --- -Ma 0 -Md ffffffff -Ms 0 -Mt 800 -Is 2.255 -Id -1.255 -It AODV -Il 48 -If 0 -Ii 0 -Iv 29 -P aodv -Pt 0x2 -Ph 2 -Pb 13 -Pd 1 -Pds 0 -Ps 0 -Pss 28 -Pc REQUEST 
r -t 163.007845729 -Hs 0 -Hd -2 -Ni 0 -Nx 460.17 -Ny 601.92 -Nz 0.00 -Ne -1.000000 -Nl RTR -Nw --- -Ma 0 -Md ffffffff -Ms 2 -Mt 800 -Is 2.255 -Id -1.255 -It AODV -Il 48 -If 0 -Ii 0 -Iv 29 -P aodv -Pt 0x2 -Ph 2 -Pb 13 -Pd 1 -Pds 0 -Ps 0 -Pss 28 -Pc REQUEST 
s -t 165.000000000 -Hs 0 -Hd -2 -Ni 0 -Nx 456.07 -Ny 601.32 -Nz 0.00 -Ne -1.000000 -Nl RTR -Nw --- -Ma 0 -Md 0 -Ms 0 -Mt 0 -Is 0.255 -Id -1.255 -It AODV -Il 48 -If 0 -Ii 0 -Iv 30 -P aodv -Pt 0x2 -Ph 1 -Pb 14 -Pd 1 -Pds 0 -Ps 0 -Pss 30 -Pc REQUEST 
r -t 165.001108718 -Hs 2 -Hd -2 -Ni 2 -Nx 283.92 -Ny 471.63 -Nz 0.00 -Ne -1.000000 -Nl RTR -Nw --- -Ma 0 -Md ffffffff -Ms 0 -Mt 800 -Is 0.255 -Id -1.255 -It AODV -Il 48 -If 0 -Ii 0 -Iv 30 -P aodv -Pt 0x2 -Ph 1 -Pb 14 -Pd 1 -Pds 0 -Ps 0 -Pss 30 -Pc REQUEST 
s -t 165.001384293 -Hs 2 -Hd -2 -Ni 2 -Nx 283.92 -Ny 471.63 -Nz 0.00 -Ne -1.000000 -Nl RTR -Nw --- -Ma 0 -Md ffffffff -Ms 0 -Mt 800 -Is 2.255 -Id -1.255 -It AODV -Il 48 -If 0 -Ii 0 -Iv 29 -P aodv -Pt 0x2 -Ph 2 -Pb 14 -Pd 1 -Pds 0 -Ps 0 -Pss 30 -Pc REQUEST 
r -t 165.002633012 -Hs 0 -Hd -2 -Ni 0 -Nx 456.06 -Ny 601.32 -Nz 0.00 -Ne -1.000000 -Nl RTR -Nw --- -Ma 0 -Md ffffffff -Ms 2 -Mt 800 -Is 2.255 -Id -1.255 -It AODV -Il 48 -If 0 -Ii 0 -Iv 29 -P aodv -Pt 0x2 -Ph 2 -Pb 14 -Pd 1 -Pds 0 -Ps 0 -Pss 30 -Pc REQUEST 
s -t 169.000000000 -Hs 0 -Hd -2 -Ni 0 -Nx 447.83 -Ny 600.11 -Nz 0.00 -Ne -1.000000 -Nl RTR -Nw --- -Ma 0 -Md 0 -Ms 0 -Mt 0 -Is 0.255 -Id -1.255 -It AODV -Il 48 -If 0 -Ii 0 -Iv 30 -P aodv -Pt 0x2 -Ph 1 -Pb 15 -Pd 1 -Pds 0 -Ps 0 -Pss 32 -Pc REQUEST 
r -t 169.001188659 -Hs 2 -Hd -2 -Ni 2 -Nx 311.69 -Ny 456.62 -Nz 0.00 -Ne -1.000000 -Nl RTR -Nw --- -Ma 0 -Md ffffffff -Ms 0 -Mt 800 -Is 0.255 -Id -1.255 -It AODV -Il 48 -If 0 -Ii 0 -Iv 30 -P aodv -Pt 0x2 -Ph 1 -Pb 15 -Pd 1 -Pds 0 -Ps 0 -Pss 32 -Pc REQUEST 
s -t 169.008915617 -Hs 2 -Hd -2 -Ni 2 -Nx 311.74 -Ny 456.59 -Nz 0.00 -Ne -1.000000 -Nl RTR -Nw --- -Ma 0 -Md ffffffff -Ms 0 -Mt 800 -Is 2.255 -Id -1.255 -It AODV -Il 48 -If 0 -Ii 0 -Iv 29 -P aodv -Pt 0x2 -Ph 2 -Pb 15 -Pd 1 -Pds 0 -Ps 0 -Pss 32 -Pc REQUEST 
r -t 169.009884276 -Hs 0 -Hd -2 -Ni 0 -Nx 447.81 -Ny 600.11 -Nz 0.00 -Ne -1.000000 -Nl RTR -Nw --- -Ma 0 -Md ffffffff -Ms 2 -Mt 800 -Is 2.255 -Id -1.255 -It AODV -Il 48 -If 0 -Ii 0 -Iv 29 -P aodv -Pt 0x2 -Ph 2 -Pb 15 -Pd 1 -Pds 0 -Ps 0 -Pss 32 -Pc REQUEST 
s -t 174.500000000 -Hs 0 -Hd -2 -Ni 0 -Nx 436.50 -Ny 598.45 -Nz 0.00 -Ne -1.000000 -Nl RTR -Nw --- -Ma 0 -Md 0 -Ms 0 -Mt 0 -Is 0.255 -Id -1.255 -It AODV -Il 48 -If 0 -Ii 0 -Iv 30 -P aodv -Pt 0x2 -Ph 1 -Pb 16 -Pd 1 -Pds 0 -Ps 0 -Pss 34 -Pc REQUEST 
r -t 174.501188614 -Hs 2 -Hd -2 -Ni 2 -Nx 349.87 -Ny 435.99 -Nz 0.00 -Ne -1.000000 -Nl RTR -Nw --- -Ma 0 -Md ffffffff -Ms 0 -Mt 800 -Is 0.255 -Id -1.255 -It AODV -Il 48 -If 0 -Ii 0 -Iv 30 -P aodv -Pt 0x2 -Ph 1 -Pb 16 -Pd 1 -Pds 0 -Ps 0 -Pss 34 -Pc REQUEST 
s -t 174.502102183 -Hs 2 -Hd -2 -Ni 2 -Nx 349.88 -Ny 435.99 -Nz 0.00 -Ne -1.000000 -Nl RTR -Nw --- -Ma 0 -Md ffffffff -Ms 0 -Mt 800 -Is 2.255 -Id -1.255 -It AODV -Il 48 -If 0 -Ii 0 -Iv 29 -P aodv -Pt 0x2 -Ph 2 -Pb 16 -Pd 1 -Pds 0 -Ps 0 -Pss 34 -Pc REQUEST 
r -t 174.503090797 -Hs 0 -Hd -2 -Ni 0 -Nx 436.49 -Ny 598.45 -Nz 0.00 -Ne -1.000000 -Nl RTR -Nw --- -Ma 0 -Md ffffffff -Ms 2 -Mt 800 -Is 2.255 -Id -1.255 -It AODV -Il 48 -If 0 -Ii 0 -Iv 29 -P aodv -Pt 0x2 -Ph 2 -Pb 16 -Pd 1 -Pds 0 -Ps 0 -Pss 34 -Pc REQUEST 
r -t 174.503091004 -Hs 1 -Hd -2 -Ni 1 -Nx 502.48 -Ny 242.42 -Nz 0.00 -Ne -1.000000 -Nl RTR -Nw --- -Ma 0 -Md ffffffff -Ms 2 -Mt 800 -Is 2.255 -Id -1.255 -It AODV -Il 48 -If 0 -Ii 0 -Iv 29 -P aodv -Pt 0x2 -Ph 2 -Pb 16 -Pd 1 -Pds 0 -Ps 0 -Pss 34 -Pc REQUEST 
s -t 174.503091004 -Hs 1 -Hd 2 -Ni 1 -Nx 502.48 -Ny 242.42 -Nz 0.00 -Ne -1.000000 -Nl RTR -Nw --- -Ma 0 -Md 0 -Ms 0 -Mt 0 -Is 1.255 -Id 0.255 -It AODV -Il 44 -If 0 -Ii 0 -Iv 30 -P aodv -Pt 0x4 -Ph 1 -Pd 1 -Pds 4 -Pl 10.000000 -Pc REPLY 
r -t 174.507674755 -Hs 2 -Hd 2 -Ni 2 -Nx 349.92 -Ny 435.97 -Nz 0.00 -Ne -1.000000 -Nl RTR -Nw --- -Ma 13a -Md 2 -Ms 1 -Mt 800 -Is 1.255 -Id 0.255 -It AODV -Il 44 -If 0 -Ii 0 -Iv 30 -P aodv -Pt 0x4 -Ph 1 -Pd 1 -Pds 4 -Pl 10.000000 -Pc REPLY 
f -t 174.507674755 -Hs 2 -Hd 0 -Ni 2 -Nx 349.92 -Ny 435.97 -Nz 0.00 -Ne -1.000000 -Nl RTR -Nw --- -Ma 13a -Md 2 -Ms 1 -Mt 800 -Is 1.255 -Id 0.255 -It AODV -Il 44 -If 0 -Ii 0 -Iv 29 -P aodv -Pt 0x4 -Ph 2 -Pd 1 -Pds 4 -Pl 10.000000 -Pc REPLY 
r -t 174.513206051 -Hs 0 -Hd 0 -Ni 0 -Nx 436.47 -Ny 598.44 -Nz 0.00 -Ne -1.000000 -Nl RTR -Nw --- -Ma 13a -Md 0 -Ms 2 -Mt 800 -Is 1.255 -Id 0.255 -It AODV -Il 44 -If 0 -Ii 0 -Iv 29 -P aodv -Pt 0x4 -Ph 2 -Pd 1 -Pds 4 -Pl 10.000000 -Pc REPLY 
s -t 174.513206051 -Hs 0 -Hd 2 -Ni 0 -Nx 436.47 -Ny 598.44 -Nz 0.00 -Ne -1.000000 -Nl RTR -Nw --- -Ma 0 -Md 0 -Ms 0 -Mt 0 -Is 0.0 -Id 1.0 -It tcp -Il 40 -If 1 -Ii 6 -Iv 30 -Pn tcp -Ps 0 -Pa 0 -Pf 0 -Po 0 
r -t 174.515091892 -Hs 2 -Hd 2 -Ni 2 -Nx 349.97 -Ny 435.94 -Nz 0.00 -Ne -1.000000 -Nl RTR -Nw --- -Ma 13a -Md 2 -Ms 0 -Mt 800 -Is 0.0 -Id 1.0 -It tcp -Il 40 -If 1 -Ii 6 -Iv 30 -Pn tcp -Ps 0 -Pa 0 -Pf 1 -Po 0 
f -t 174.515091892 -Hs 2 -Hd 1 -Ni 2 -Nx 349.97 -Ny 435.94 -Nz 0.00 -Ne -1.000000 -Nl RTR -Nw --- -Ma 13a -Md 2 -Ms 0 -Mt 800 -Is 0.0 -Id 1.0 -It tcp -Il 40 -If 1 -Ii 6 -Iv 29 -Pn tcp -Ps 0 -Pa 0 -Pf 1 -Po 0 
r -t 174.517458355 -Hs 1 -Hd 1 -Ni 1 -Nx 502.47 -Ny 242.43 -Nz 0.00 -Ne -1.000000 -Nl AGT -Nw --- -Ma 13a -Md 1 -Ms 2 -Mt 800 -Is 0.0 -Id 1.0 -It tcp -Il 40 -If 1 -Ii 6 -Iv 29 -Pn tcp -Ps 0 -Pa 0 -Pf 2 -Po 0 
s -t 174.517458355 -Hs 1 -Hd -2 -Ni 1 -Nx 502.47 -Ny 242.43 -Nz 0.00 -Ne -1.000000 -Nl AGT -Nw --- -Ma 0 -Md 0 -Ms 0 -Mt 0 -Is 1.0 -Id 0.0 -It ack -Il 40 -If 1 -Ii 7 -Iv 32 -Pn tcp -Ps 0 -Pa 0 -Pf 0 -Po 0 
r -t 174.517458355 -Hs 1 -Hd -2 -Ni 1 -Nx 502.47 -Ny 242.43 -Nz 0.00 -Ne -1.000000 -Nl RTR -Nw --- -Ma 0 -Md 0 -Ms 0 -Mt 0 -Is 1.0 -Id 0.0 -It ack -Il 40 -If 1 -Ii 7 -Iv 32 -Pn tcp -Ps 0 -Pa 0 -Pf 0 -Po 0 
s -t 174.517458355 -Hs 1 -Hd 2 -Ni 1 -Nx 502.47 -Ny 242.43 -Nz 0.00 -Ne -1.000000 -Nl RTR -Nw --- -Ma 0 -Md 0 -Ms 0 -Mt 0 -Is 1.0 -Id 0.0 -It ack -Il 40 -If 1 -Ii 7 -Iv 30 -Pn tcp -Ps 0 -Pa 0 -Pf 0 -Po 0 
r -t 174.519884819 -Hs 2 -Hd 2 -Ni 2 -Nx 350.00 -Ny 435.92 -Nz 0.00 -Ne -1.000000 -Nl RTR -Nw --- -Ma 13a -Md 2 -Ms 1 -Mt 800 -Is 1.0 -Id 0.0 -It ack -Il 40 -If 1 -Ii 7 -Iv 30 -Pn tcp -Ps 0 -Pa 0 -Pf 1 -Po 0 
f -t 174.519884819 -Hs 2 -Hd 0 -Ni 2 -Nx 350.00 -Ny 435.92 -Nz 0.00 -Ne -1.000000 -Nl RTR -Nw --- -Ma 13a -Md 2 -Ms 1 -Mt 800 -Is 1.0 -Id 0.0 -It ack -Il 40 -If 1 -Ii 7 -Iv 29 -Pn tcp -Ps 0 -Pa 0 -Pf 1 -Po 0 
r -t 174.522250660 -Hs 0 -Hd 0 -Ni 0 -Nx 436.45 -Ny 598.44 -Nz 0.00 -Ne -1.000000 -Nl AGT -Nw --- -Ma 13a -Md 0 -Ms 2 -Mt 800 -Is 1.0 -Id 0.0 -It ack -Il 40 -If 1 -Ii 7 -Iv 29 -Pn tcp -Ps 0 -Pa 0 -Pf 2 -Po 0 
s -t 174.522250660 -Hs 0 -Hd -2 -Ni 0 -Nx 436.45 -Ny 598.44 -Nz 0.00 -Ne -1.000000 -Nl AGT -Nw --- -Ma 0 -Md 0 -Ms 0 -Mt 0 -Is 0.0 -Id 1.0 -It tcp -Il 1040 -If 1 -Ii 8 -Iv 32 -Pn tcp -Ps 1 -Pa 0 -Pf 0 -Po 0 
r -t 174.522250660 -Hs 0 -Hd -2 -Ni 0 -Nx 436.45 -Ny 598.44 -Nz 0.00 -Ne -1.000000 -Nl RTR -Nw --- -Ma 0 -Md 0 -Ms 0 -Mt 0 -Is 0.0 -Id 1.0 -It tcp -Il 1040 -If 1 -Ii 8 -Iv 32 -Pn tcp -Ps 1 -Pa 0 -Pf 0 -Po 0 
s -t 174.522250660 -Hs 0 -Hd 2 -Ni 0 -Nx 436.45 -Ny 598.44 -Nz 0.00 -Ne -1.000000 -Nl RTR -Nw --- -Ma 0 -Md 0 -Ms 0 -Mt 0 -Is 0.0 -Id 1.0 -It tcp -Il 1040 -If 1 -Ii 8 -Iv 30 -Pn tcp -Ps 1 -Pa 0 -Pf 0 -Po 0 
r -t 174.532376501 -Hs 2 -Hd 2 -Ni 2 -Nx 350.09 -Ny 435.87 -Nz 0.00 -Ne -1.000000 -Nl RTR -Nw --- -Ma 13a -Md 2 -Ms 0 -Mt 800 -Is 0.0 -Id 1.0 -It tcp -Il 1040 -If 1 -Ii 8 -Iv 30 -Pn tcp -Ps 1 -Pa 0 -Pf 1 -Po 0 
f -t 174.532376501 -Hs 2 -Hd 1 -Ni 2 -Nx 350.09 -Ny 435.87 -Nz 0.00 -Ne -1.000000 -Nl RTR -Nw --- -Ma 13a -Md 2 -Ms 0 -Mt 800 -Is 0.0 -Id 1.0 -It tcp -Il 1040 -If 1 -Ii 8 -Iv 29 -Pn tcp -Ps 1 -Pa 0 -Pf 1 -Po 0 
r -t 174.542222963 -Hs 1 -Hd 1 -Ni 1 -Nx 502.44 -Ny 242.46 -Nz 0.00 -Ne -1.000000 -Nl AGT -Nw --- -Ma 13a -Md 1 -Ms 2 -Mt 800 -Is 0.0 -Id 1.0 -It tcp -Il 1040 -If 1 -Ii 8 -Iv 29 -Pn tcp -Ps 1 -Pa 0 -Pf 2 -Po 0 
s -t 174.542222963 -Hs 1 -Hd -2 -Ni 1 -Nx 502.44 -Ny 242.46 -Nz 0.00 -Ne -1.000000 -Nl AGT -Nw --- -Ma 0 -Md 0 -Ms 0 -Mt 0 -Is 1.0 -Id 0.0 -It ack -Il 40 -If 1 -Ii 9 -Iv 32 -Pn tcp -Ps 1 -Pa 0 -Pf 0 -Po 0 
r -t 174.542222963 -Hs 1 -Hd -2 -Ni 1 -Nx 502.44 -Ny 242.46 -Nz 0.00 -Ne -1.000000 -Nl RTR -Nw --- -Ma 0 -Md 0 -Ms 0 -Mt 0 -Is 1.0 -Id 0.0 -It ack -Il 40 -If 1 -Ii 9 -Iv 32 -Pn tcp -Ps 1 -Pa 0 -Pf 0 -Po 0 
s -t 174.542222963 -Hs 1 -Hd 2 -Ni 1 -Nx 502.44 -Ny 242.46 -Nz 0.00 -Ne -1.000000 -Nl RTR -Nw --- -Ma 0 -Md 0 -Ms 0 -Mt 0 -Is 1.0 -Id 0.0 -It ack -Il 40 -If 1 -Ii 9 -Iv 30 -Pn tcp -Ps 1 -Pa 0 -Pf 0 -Po 0 
r -t 174.544089424 -Hs 2 -Hd 2 -Ni 2 -Nx 350.17 -Ny 435.83 -Nz 0.00 -Ne -1.000000 -Nl RTR -Nw --- -Ma 13a -Md 2 -Ms 1 -Mt 800 -Is 1.0 -Id 0.0 -It ack -Il 40 -If 1 -Ii 9 -Iv 30 -Pn tcp -Ps 1 -Pa 0 -Pf 1 -Po 0 
f -t 174.544089424 -Hs 2 -Hd 0 -Ni 2 -Nx 350.17 -Ny 435.83 -Nz 0.00 -Ne -1.000000 -Nl RTR -Nw --- -Ma 13a -Md 2 -Ms 1 -Mt 800 -Is 1.0 -Id 0.0 -It ack -Il 40 -If 1 -Ii 9 -Iv 29 -Pn tcp -Ps 1 -Pa 0 -Pf 1 -Po 0 
r -t 174.546475265 -Hs 0 -Hd 0 -Ni 0 -Nx 436.40 -Ny 598.43 -Nz 0.00 -Ne -1.000000 -Nl AGT -Nw --- -Ma 13a -Md 0 -Ms 2 -Mt 800 -Is 1.0 -Id 0.0 -It ack -Il 40 -If 1 -Ii 9 -Iv 29 -Pn tcp -Ps 1 -Pa 0 -Pf 2 -Po 0 
s -t 174.546475265 -Hs 0 -Hd -2 -Ni 0 -Nx 436.40 -Ny 598.43 -Nz 0.00 -Ne -1.000000 -Nl AGT -Nw --- -Ma 0 -Md 0 -Ms 0 -Mt 0 -Is 0.0 -Id 1.0 -It tcp -Il 1040 -If 1 -Ii 10 -Iv 32 -Pn tcp -Ps 2 -Pa 0 -Pf 0 -Po 0 
r -t 174.546475265 -Hs 0 -Hd -2 -Ni 0 -Nx 436.40 -Ny 598.43 -Nz 0.00 -Ne -1.000000 -Nl RTR -Nw --- -Ma 0 -Md 0 -Ms 0 -Mt 0 -Is 0.0 -Id 1.0 -It tcp -Il 1040 -If 1 -Ii 10 -Iv 32 -Pn tcp -Ps 2 -Pa 0 -Pf 0 -Po 0 
s -t 174.546475265 -Hs 0 -Hd -2 -Ni 0 -Nx 436.40 -Ny 598.43 -Nz 0.00 -Ne -1.000000 -Nl AGT -Nw --- -Ma 0 -Md 0 -Ms 0 -Mt 0 -Is 0.0 -Id 1.0 -It tcp -Il 1040 -If 1 -Ii 11 -Iv 32 -Pn tcp -Ps 3 -Pa 0 -Pf 0 -Po 0 
r -t 174.546475265 -Hs 0 -Hd -2 -Ni 0 -Nx 436.40 -Ny 598.43 -Nz 0.00 -Ne -1.000000 -Nl RTR -Nw --- -Ma 0 -Md 0 -Ms 0 -Mt 0 -Is 0.0 -Id 1.0 -It tcp -Il 1040 -If 1 -Ii 11 -Iv 32 -Pn tcp -Ps 3 -Pa 0 -Pf 0 -Po 0 
s -t 174.546475265 -Hs 0 -Hd 2 -Ni 0 -Nx 436.40 -Ny 598.43 -Nz 0.00 -Ne -1.000000 -Nl RTR -Nw --- -Ma 0 -Md 0 -Ms 0 -Mt 0 -Is 0.0 -Id 1.0 -It tcp -Il 1040 -If 1 -Ii 10 -Iv 30 -Pn tcp -Ps 2 -Pa 0 -Pf 0 -Po 0 
s -t 174.546475265 -Hs 0 -Hd 2 -Ni 0 -Nx 436.40 -Ny 598.43 -Nz 0.00 -Ne -1.000000 -Nl RTR -Nw --- -Ma 0 -Md 0 -Ms 0 -Mt 0 -Is 0.0 -Id 1.0 -It tcp -Il 1040 -If 1 -Ii 11 -Iv 30 -Pn tcp -Ps 3 -Pa 0 -Pf 0 -Po 0 
r -t 174.556481105 -Hs 2 -Hd 2 -Ni 2 -Nx 350.26 -Ny 435.78 -Nz 0.00 -Ne -1.000000 -Nl RTR -Nw --- -Ma 13a -Md 2 -Ms 0 -Mt 800 -Is 0.0 -Id 1.0 -It tcp -Il 1040 -If 1 -Ii 10 -Iv 30 -Pn tcp -Ps 2 -Pa 0 -Pf 1 -Po 0 
f -t 174.556481105 -Hs 2 -Hd 1 -Ni 2 -Nx 350.26 -Ny 435.78 -Nz 0.00 -Ne -1.000000 -Nl RTR -Nw --- -Ma 13a -Md 2 -Ms 0 -Mt 800 -Is 0.0 -Id 1.0 -It tcp -Il 1040 -If 1 -Ii 10 -Iv 29 -Pn tcp -Ps 2 -Pa 0 -Pf 1 -Po 0 
r -t 174.566707559 -Hs 2 -Hd 2 -Ni 2 -Nx 350.33 -Ny 435.75 -Nz 0.00 -Ne -1.000000 -Nl RTR -Nw --- -Ma 13a -Md 2 -Ms 0 -Mt 800 -Is 0.0 -Id 1.0 -It tcp -Il 1040 -If 1 -Ii 11 -Iv 30 -Pn tcp -Ps 3 -Pa 0 -Pf 1 -Po 0 
f -t 174.566707559 -Hs 2 -Hd 1 -Ni 2 -Nx 350.33 -Ny 435.75 -Nz 0.00 -Ne -1.000000 -Nl RTR -Nw --- -Ma 13a -Md 2 -Ms 0 -Mt 800 -Is 0.0 -Id 1.0 -It tcp -Il 1040 -If 1 -Ii 11 -Iv 29 -Pn tcp -Ps 3 -Pa 0 -Pf 1 -Po 0 
r -t 174.576574018 -Hs 1 -Hd 1 -Ni 1 -Nx 502.40 -Ny 242.49 -Nz 0.00 -Ne -1.000000 -Nl AGT -Nw --- -Ma 13a -Md 1 -Ms 2 -Mt 800 -Is 0.0 -Id 1.0 -It tcp -Il 1040 -If 1 -Ii 10 -Iv 29 -Pn tcp -Ps 2 -Pa 0 -Pf 2 -Po 0 
s -t 174.576574018 -Hs 1 -Hd -2 -Ni 1 -Nx 502.40 -Ny 242.49 -Nz 0.00 -Ne -1.000000 -Nl AGT -Nw --- -Ma 0 -Md 0 -Ms 0 -Mt 0 -Is 1.0 -Id 0.0 -It ack -Il 40 -If 1 -Ii 12 -Iv 32 -Pn tcp -Ps 2 -Pa 0 -Pf 0 -Po 0 
r -t 174.576574018 -Hs 1 -Hd -2 -Ni 1 -Nx 502.40 -Ny 242.49 -Nz 0.00 -Ne -1.000000 -Nl RTR -Nw --- -Ma 0 -Md 0 -Ms 0 -Mt 0 -Is 1.0 -Id 0.0 -It ack -Il 40 -If 1 -Ii 12 -Iv 32 -Pn tcp -Ps 2 -Pa 0 -Pf 0 -Po 0 
s -t 174.576574018 -Hs 1 -Hd 2 -Ni 1 -Nx 502.40 -Ny 242.49 -Nz 0.00 -Ne -1.000000 -Nl RTR -Nw --- -Ma 0 -Md 0 -Ms 0 -Mt 0 -Is 1.0 -Id 0.0 -It ack -Il 40 -If 1 -Ii 12 -Iv 30 -Pn tcp -Ps 2 -Pa 0 -Pf 0 -Po 0 
r -t 174.578560477 -Hs 2 -Hd 2 -Ni 2 -Nx 350.41 -Ny 435.70 -Nz 0.00 -Ne -1.000000 -Nl RTR -Nw --- -Ma 13a -Md 2 -Ms 1 -Mt 800 -Is 1.0 -Id 0.0 -It ack -Il 40 -If 1 -Ii 12 -Iv 30 -Pn tcp -Ps 2 -Pa 0 -Pf 1 -Po 0 
f -t 174.578560477 -Hs 2 -Hd 0 -Ni 2 -Nx 350.41 -Ny 435.70 -Nz 0.00 -Ne -1.000000 -Nl RTR -Nw --- -Ma 13a -Md 2 -Ms 1 -Mt 800 -Is 1.0 -Id 0.0 -It ack -Il 40 -If 1 -Ii 12 -Iv 29 -Pn tcp -Ps 2 -Pa 0 -Pf 1 -Po 0 
r -t 174.588466935 -Hs 1 -Hd 1 -Ni 1 -Nx 502.39 -Ny 242.50 -Nz 0.00 -Ne -1.000000 -Nl AGT -Nw --- -Ma 13a -Md 1 -Ms 2 -Mt 800 -Is 0.0 -Id 1.0 -It tcp -Il 1040 -If 1 -Ii 11 -Iv 29 -Pn tcp -Ps 3 -Pa 0 -Pf 2 -Po 0 
s -t 174.588466935 -Hs 1 -Hd -2 -Ni 1 -Nx 502.39 -Ny 242.50 -Nz 0.00 -Ne -1.000000 -Nl AGT -Nw --- -Ma 0 -Md 0 -Ms 0 -Mt 0 -Is 1.0 -Id 0.0 -It ack -Il 40 -If 1 -Ii 13 -Iv 32 -Pn tcp -Ps 3 -Pa 0 -Pf 0 -Po 0 
r -t 174.588466935 -Hs 1 -Hd -2 -Ni 1 -Nx 502.39 -Ny 242.50 -Nz 0.00 -Ne -1.000000 -Nl RTR -Nw --- -Ma 0 -Md 0 -Ms 0 -Mt 0 -Is 1.0 -Id 0.0 -It ack -Il 40 -If 1 -Ii 13 -Iv 32 -Pn tcp -Ps 3 -Pa 0 -Pf 0 -Po 0 
s -t 174.588466935 -Hs 1 -Hd 2 -Ni 1 -Nx 502.39 -Ny 242.50 -Nz 0.00 -Ne -1.000000 -Nl RTR -Nw --- -Ma 0 -Md 0 -Ms 0 -Mt 0 -Is 1.0 -Id 0.0 -It ack -Il 40 -If 1 -Ii 13 -Iv 30 -Pn tcp -Ps 3 -Pa 0 -Pf 0 -Po 0 
r -t 174.590433392 -Hs 2 -Hd 2 -Ni 2 -Nx 350.49 -Ny 435.66 -Nz 0.00 -Ne -1.000000 -Nl RTR -Nw --- -Ma 13a -Md 2 -Ms 1 -Mt 800 -Is 1.0 -Id 0.0 -It ack -Il 40 -If 1 -Ii 13 -Iv 30 -Pn tcp -Ps 3 -Pa 0 -Pf 1 -Po 0 
f -t 174.590433392 -Hs 2 -Hd 0 -Ni 2 -Nx 350.49 -Ny 435.66 -Nz 0.00 -Ne -1.000000 -Nl RTR -Nw --- -Ma 13a -Md 2 -Ms 1 -Mt 800 -Is 1.0 -Id 0.0 -It ack -Il 40 -If 1 -Ii 13 -Iv 29 -Pn tcp -Ps 3 -Pa 0 -Pf 1 -Po 0 
r -t 174.592499232 -Hs 0 -Hd 0 -Ni 0 -Nx 436.31 -Ny 598.42 -Nz 0.00 -Ne -1.000000 -Nl AGT -Nw --- -Ma 13a -Md 0 -Ms 2 -Mt 800 -Is 1.0 -Id 0.0 -It ack -Il 40 -If 1 -Ii 12 -Iv 29 -Pn tcp -Ps 2 -Pa 0 -Pf 2 -Po 0 
s -t 174.592499232 -Hs 0 -Hd -2 -Ni 0 -Nx 436.31 -Ny 598.42 -Nz 0.00 -Ne -1.000000 -Nl AGT -Nw --- -Ma 0 -Md 0 -Ms 0 -Mt 0 -Is 0.0 -Id 1.0 -It tcp -Il 1040 -If 1 -Ii 14 -Iv 32 -Pn tcp -Ps 4 -Pa 0 -Pf 0 -Po 0 
r -t 174.592499232 -Hs 0 -Hd -2 -Ni 0 -Nx 436.31 -Ny 598.42 -Nz 0.00 -Ne -1.000000 -Nl RTR -Nw --- -Ma 0 -Md 0 -Ms 0 -Mt 0 -Is 0.0 -Id 1.0 -It tcp -Il 1040 -If 1 -Ii 14 -Iv 32 -Pn tcp -Ps 4 -Pa 0 -Pf 0 -Po 0 
s -t 174.592499232 -Hs 0 -Hd 2 -Ni 0 -Nx 436.31 -Ny 598.42 -Nz 0.00 -Ne -1.000000 -Nl RTR -Nw --- -Ma 0 -Md 0 -Ms 0 -Mt 0 -Is 0.0 -Id 1.0 -It tcp -Il 1040 -If 1 -Ii 14 -Iv 30 -Pn tcp -Ps 4 -Pa 0 -Pf 0 -Po 0 
r -t 174.602745072 -Hs 2 -Hd 2 -Ni 2 -Nx 350.58 -Ny 435.61 -Nz 0.00 -Ne -1.000000 -Nl RTR -Nw --- -Ma 13a -Md 2 -Ms 0 -Mt 800 -Is 0.0 -Id 1.0 -It tcp -Il 1040 -If 1 -Ii 14 -Iv 30 -Pn tcp -Ps 4 -Pa 0 -Pf 1 -Po 0 
f -t 174.602745072 -Hs 2 -Hd 1 -Ni 2 -Nx 350.58 -Ny 435.61 -Nz 0.00 -Ne -1.000000 -Nl RTR -Nw --- -Ma 13a -Md 2 -Ms 0 -Mt 800 -Is 0.0 -Id 1.0 -It tcp -Il 1040 -If 1 -Ii 14 -Iv 29 -Pn tcp -Ps 4 -Pa 0 -Pf 1 -Po 0 
r -t 174.604670912 -Hs 0 -Hd 0 -Ni 0 -Nx 436.28 -Ny 598.42 -Nz 0.00 -Ne -1.000000 -Nl AGT -Nw --- -Ma 13a -Md 0 -Ms 2 -Mt 800 -Is 1.0 -Id 0.0 -It ack -Il 40 -If 1 -Ii 13 -Iv 29 -Pn tcp -Ps 3 -Pa 0 -Pf 2 -Po 0 
s -t 174.604670912 -Hs 0 -Hd -2 -Ni 0 -Nx 436.28 -Ny 598.42 -Nz 0.00 -Ne -1.000000 -Nl AGT -Nw --- -Ma 0 -Md 0 -Ms 0 -Mt 0 -Is 0.0 -Id 1.0 -It tcp -Il 1040 -If 1 -Ii 15 -Iv 32 -Pn tcp -Ps 5 -Pa 0 -Pf 0 -Po 0 