n -t * -s 0  -x 791.90704001036102 -y 650.52071507282301 -Z 0 -z 30  -v circle -c black
n -t * -s 1  -x 137.67787251551599 -y 356.619446300167 -Z 0 -z 30  -v circle -c black
n -t * -s 2  -x 758.61031808679604 -y 629.92642182500504 -Z 0 -z 30  -v circle -c black
n -t * -s 3  -x 220.854683857824 -y 395.40254740131297 -Z 0 -z 30  -v circle -c black
n -t * -s 4  -x 513.82022213065204 -y 99.238388319869003 -Z 0 -z 30  -v circle -c black
V -t * -v 1.0a5 -a 0
W -t * -x 800 -y 700
A -t * -n 1 -p 0 -o 0x7fffffff -c 30 -a 1
A -t * -h 1 -m 1073741823 -s 0
c -t * -i 1 -n blue
n -t 2.000000 -s 0 -x 791.907040 -y 650.520715 -U -2.060354 -V -0.301866 -T 361.900863
n -t 2.000000 -s 1 -x 137.677873 -y 356.619446 -U 3.935032 -V -1.592276 -T 109.283378
n -t 2.000000 -s 2 -x 758.610318 -y 629.926422 -U -5.133199 -V -0.371871 -T 131.873049
n -t 2.000000 -s 3 -x 220.854684 -y 395.402547 -U 0.632888 -V -1.352102 -T 219.304660
n -t 2.000000 -s 4 -x 513.820222 -y 99.238388 -U -0.169656 -V 0.479036 -T 775.774848
+ -t 10.000000000 -s 0 -d -1 -p tcp -e 40 -c 2 -a 0 -i 0 -k AGT 
- -t 10.000000000 -s 0 -d -1 -p tcp -e 40 -c 2 -a 0 -i 0 -k AGT
h -t 10.000000000 -s 0 -d -1 -p tcp -e 40 -c 2 -a 0 -i 0 -k AGT
+ -t 10.000000000 -s 0 -d -1 -p AODV -e 48 -c 2 -a 0 -i 0 -k RTR 
- -t 10.000000000 -s 0 -d -1 -p AODV -e 48 -c 2 -a 0 -i 0 -k RTR
h -t 10.000000000 -s 0 -d -1 -p AODV -e 48 -c 2 -a 0 -i 0 -k RTR
r -t 10.000988205 -s 2 -d -1 -p AODV -e 48 -c 2 -a 0 -i 0 -k RTR
+ -t 10.001869432 -s 2 -d -1 -p AODV -e 48 -c 2 -a 0 -i 0 -k RTR 
- -t 10.001869432 -s 2 -d -1 -p AODV -e 48 -c 2 -a 0 -i 0 -k RTR
h -t 10.001869432 -s 2 -d -1 -p AODV -e 48 -c 2 -a 0 -i 0 -k RTR
r -t 10.003137638 -s 0 -d -1 -p AODV -e 48 -c 2 -a 0 -i 0 -k RTR
+ -t 12.000000000 -s 0 -d -1 -p AODV -e 48 -c 2 -a 0 -i 0 -k RTR 
- -t 12.000000000 -s 0 -d -1 -p AODV -e 48 -c 2 -a 0 -i 0 -k RTR
h -t 12.000000000 -s 0 -d -1 -p AODV -e 48 -c 2 -a 0 -i 0 -k RTR
r -t 12.001108225 -s 2 -d -1 -p AODV -e 48 -c 2 -a 0 -i 0 -k RTR
+ -t 12.003454242 -s 2 -d -1 -p AODV -e 48 -c 2 -a 0 -i 0 -k RTR 
- -t 12.003454242 -s 2 -d -1 -p AODV -e 48 -c 2 -a 0 -i 0 -k RTR
h -t 12.003454242 -s 2 -d -1 -p AODV -e 48 -c 2 -a 0 -i 0 -k RTR
r -t 12.004762467 -s 0 -d -1 -p AODV -e 48 -c 2 -a 0 -i 0 -k RTR
+ -t 13.000000000 -s 0 -d -1 -p tcp -e 40 -c 2 -a 0 -i 1 -k AGT 
- -t 13.000000000 -s 0 -d -1 -p tcp -e 40 -c 2 -a 0 -i 1 -k AGT
h -t 13.000000000 -s 0 -d -1 -p tcp -e 40 -c 2 -a 0 -i 1 -k AGT
+ -t 16.000000000 -s 0 -d -1 -p AODV -e 48 -c 2 -a 0 -i 0 -k RTR 
- -t 16.000000000 -s 0 -d -1 -p AODV -e 48 -c 2 -a 0 -i 0 -k RTR
h -t 16.000000000 -s 0 -d -1 -p AODV -e 48 -c 2 -a 0 -i 0 -k RTR
r -t 16.001188264 -s 2 -d -1 -p AODV -e 48 -c 2 -a 0 -i 0 -k RTR
+ -t 16.001616210 -s 2 -d -1 -p AODV -e 48 -c 2 -a 0 -i 0 -k RTR 
- -t 16.001616210 -s 2 -d -1 -p AODV -e 48 -c 2 -a 0 -i 0 -k RTR
h -t 16.001616210 -s 2 -d -1 -p AODV -e 48 -c 2 -a 0 -i 0 -k RTR
r -t 16.002724474 -s 0 -d -1 -p AODV -e 48 -c 2 -a 0 -i 0 -k RTR
+ -t 19.000000000 -s 0 -d -1 -p tcp -e 40 -c 2 -a 0 -i 2 -k AGT 
- -t 19.000000000 -s 0 -d -1 -p tcp -e 40 -c 2 -a 0 -i 2 -k AGT
h -t 19.000000000 -s 0 -d -1 -p tcp -e 40 -c 2 -a 0 -i 2 -k AGT
+ -t 21.500000000 -s 0 -d -1 -p AODV -e 48 -c 2 -a 0 -i 0 -k RTR 
- -t 21.500000000 -s 0 -d -1 -p AODV -e 48 -c 2 -a 0 -i 0 -k RTR
h -t 21.500000000 -s 0 -d -1 -p AODV -e 48 -c 2 -a 0 -i 0 -k RTR
r -t 21.501188319 -s 2 -d -1 -p AODV -e 48 -c 2 -a 0 -i 0 -k RTR
+ -t 21.502936372 -s 2 -d -1 -p AODV -e 48 -c 2 -a 0 -i 0 -k RTR 
- -t 21.502936372 -s 2 -d -1 -p AODV -e 48 -c 2 -a 0 -i 0 -k RTR
h -t 21.502936372 -s 2 -d -1 -p AODV -e 48 -c 2 -a 0 -i 0 -k RTR
r -t 21.504224691 -s 0 -d -1 -p AODV -e 48 -c 2 -a 0 -i 0 -k RTR
d -t 29.000000000 -s 0 -d -1 -p tcp -e 40 -c 2 -a 0 -i 0 -k RTR
d -t 29.000000000 -s 0 -d -1 -p tcp -e 40 -c 2 -a 0 -i 1 -k RTR
d -t 29.000000000 -s 0 -d -1 -p tcp -e 40 -c 2 -a 0 -i 2 -k RTR
+ -t 31.000000000 -s 0 -d -1 -p tcp -e 40 -c 2 -a 0 -i 3 -k AGT 
- -t 31.000000000 -s 0 -d -1 -p tcp -e 40 -c 2 -a 0 -i 3 -k AGT
h -t 31.000000000 -s 0 -d -1 -p tcp -e 40 -c 2 -a 0 -i 3 -k AGT
+ -t 39.000000000 -s 0 -d -1 -p AODV -e 48 -c 2 -a 0 -i 0 -k RTR 
- -t 39.000000000 -s 0 -d -1 -p AODV -e 48 -c 2 -a 0 -i 0 -k RTR
h -t 39.000000000 -s 0 -d -1 -p AODV -e 48 -c 2 -a 0 -i 0 -k RTR
r -t 39.001148496 -s 2 -d -1 -p AODV -e 48 -c 2 -a 0 -i 0 -k RTR
+ -t 39.005235353 -s 2 -d -1 -p AODV -e 48 -c 2 -a 0 -i 0 -k RTR 
- -t 39.005235353 -s 2 -d -1 -p AODV -e 48 -c 2 -a 0 -i 0 -k RTR
h -t 39.005235353 -s 2 -d -1 -p AODV -e 48 -c 2 -a 0 -i 0 -k RTR
r -t 39.006423849 -s 0 -d -1 -p AODV -e 48 -c 2 -a 0 -i 0 -k RTR
+ -t 41.000000000 -s 0 -d -1 -p AODV -e 48 -c 2 -a 0 -i 0 -k RTR 
- -t 41.000000000 -s 0 -d -1 -p AODV -e 48 -c 2 -a 0 -i 0 -k RTR
h -t 41.000000000 -s 0 -d -1 -p AODV -e 48 -c 2 -a 0 -i 0 -k RTR
r -t 41.001128516 -s 2 -d -1 -p AODV -e 48 -c 2 -a 0 -i 0 -k RTR
+ -t 41.009526768 -s 2 -d -1 -p AODV -e 48 -c 2 -a 0 -i 0 -k RTR 
- -t 41.009526768 -s 2 -d -1 -p AODV -e 48 -c 2 -a 0 -i 0 -k RTR
h -t 41.009526768 -s 2 -d -1 -p AODV -e 48 -c 2 -a 0 -i 0 -k RTR
r -t 41.011015285 -s 0 -d -1 -p AODV -e 48 -c 2 -a 0 -i 0 -k RTR
+ -t 45.000000000 -s 0 -d -1 -p AODV -e 48 -c 2 -a 0 -i 0 -k RTR 
- -t 45.000000000 -s 0 -d -1 -p AODV -e 48 -c 2 -a 0 -i 0 -k RTR
h -t 45.000000000 -s 0 -d -1 -p AODV -e 48 -c 2 -a 0 -i 0 -k RTR
r -t 45.000988557 -s 2 -d -1 -p AODV -e 48 -c 2 -a 0 -i 0 -k RTR
+ -t 45.008610876 -s 2 -d -1 -p AODV -e 48 -c 2 -a 0 -i 0 -k RTR 
- -t 45.008610876 -s 2 -d -1 -p AODV -e 48 -c 2 -a 0 -i 0 -k RTR
h -t 45.008610876 -s 2 -d -1 -p AODV -e 48 -c 2 -a 0 -i 0 -k RTR
r -t 45.009699433 -s 0 -d -1 -p AODV -e 48 -c 2 -a 0 -i 0 -k RTR
+ -t 50.500000000 -s 0 -d -1 -p AODV -e 48 -c 2 -a 0 -i 0 -k RTR 
- -t 50.500000000 -s 0 -d -1 -p AODV -e 48 -c 2 -a 0 -i 0 -k RTR
h -t 50.500000000 -s 0 -d -1 -p AODV -e 48 -c 2 -a 0 -i 0 -k RTR
r -t 50.501228613 -s 2 -d -1 -p AODV -e 48 -c 2 -a 0 -i 0 -k RTR
+ -t 50.503102265 -s 2 -d -1 -p AODV -e 48 -c 2 -a 0 -i 0 -k RTR 
- -t 50.503102265 -s 2 -d -1 -p AODV -e 48 -c 2 -a 0 -i 0 -k RTR
h -t 50.503102265 -s 2 -d -1 -p AODV -e 48 -c 2 -a 0 -i 0 -k RTR
r -t 50.504570878 -s 0 -d -1 -p AODV -e 48 -c 2 -a 0 -i 0 -k RTR
+ -t 55.000000000 -s 0 -d -1 -p tcp -e 40 -c 2 -a 0 -i 4 -k AGT 
- -t 55.000000000 -s 0 -d -1 -p tcp -e 40 -c 2 -a 0 -i 4 -k AGT
h -t 55.000000000 -s 0 -d -1 -p tcp -e 40 -c 2 -a 0 -i 4 -k AGT
d -t 58.000000000 -s 0 -d -1 -p tcp -e 40 -c 2 -a 0 -i 3 -k RTR
d -t 58.000000000 -s 0 -d -1 -p tcp -e 40 -c 2 -a 0 -i 4 -k RTR
+ -t 103.000000000 -s 0 -d -1 -p tcp -e 40 -c 2 -a 0 -i 5 -k AGT 
- -t 103.000000000 -s 0 -d -1 -p tcp -e 40 -c 2 -a 0 -i 5 -k AGT
h -t 103.000000000 -s 0 -d -1 -p tcp -e 40 -c 2 -a 0 -i 5 -k AGT
+ -t 103.000000000 -s 0 -d -1 -p AODV -e 48 -c 2 -a 0 -i 0 -k RTR 
- -t 103.000000000 -s 0 -d -1 -p AODV -e 48 -c 2 -a 0 -i 0 -k RTR
h -t 103.000000000 -s 0 -d -1 -p AODV -e 48 -c 2 -a 0 -i 0 -k RTR
+ -t 105.000000000 -s 0 -d -1 -p AODV -e 48 -c 2 -a 0 -i 0 -k RTR 
- -t 105.000000000 -s 0 -d -1 -p AODV -e 48 -c 2 -a 0 -i 0 -k RTR
h -t 105.000000000 -s 0 -d -1 -p AODV -e 48 -c 2 -a 0 -i 0 -k RTR
+ -t 109.000000000 -s 0 -d -1 -p AODV -e 48 -c 2 -a 0 -i 0 -k RTR 
- -t 109.000000000 -s 0 -d -1 -p AODV -e 48 -c 2 -a 0 -i 0 -k RTR
h -t 109.000000000 -s 0 -d -1 -p AODV -e 48 -c 2 -a 0 -i 0 -k RTR
n -t 111.283378 -s 1 -x 567.711485 -y 182.610179 -U 0.000000 -V 0.000000 -T 0.000000
n -t 113.283378 -s 1 -x 567.711485 -y 182.610179 -U -1.065487 -V 0.976932 -T 87.410036
+ -t 114.500000000 -s 0 -d -1 -p AODV -e 48 -c 2 -a 0 -i 0 -k RTR 
- -t 114.500000000 -s 0 -d -1 -p AODV -e 48 -c 2 -a 0 -i 0 -k RTR
h -t 114.500000000 -s 0 -d -1 -p AODV -e 48 -c 2 -a 0 -i 0 -k RTR
d -t 122.000000000 -s 0 -d -1 -p tcp -e 40 -c 2 -a 0 -i 5 -k RTR
n -t 133.873049 -s 2 -x 81.679768 -y 580.886710 -U -0.000000 -V -0.000000 -T 0.000000
n -t 135.873049 -s 2 -x 81.679768 -y 580.886710 -U 6.942977 -V -3.751032 -T 86.364160
+ -t 163.000000000 -s 0 -d -1 -p tcp -e 40 -c 2 -a 0 -i 6 -k AGT 
- -t 163.000000000 -s 0 -d -1 -p tcp -e 40 -c 2 -a 0 -i 6 -k AGT
h -t 163.000000000 -s 0 -d -1 -p tcp -e 40 -c 2 -a 0 -i 6 -k AGT
+ -t 163.000000000 -s 0 -d -1 -p AODV -e 48 -c 2 -a 0 -i 0 -k RTR 
- -t 163.000000000 -s 0 -d -1 -p AODV -e 48 -c 2 -a 0 -i 0 -k RTR
h -t 163.000000000 -s 0 -d -1 -p AODV -e 48 -c 2 -a 0 -i 0 -k RTR
r -t 163.001228755 -s 2 -d -1 -p AODV -e 48 -c 2 -a 0 -i 0 -k RTR
+ -t 163.006676974 -s 2 -d -1 -p AODV -e 48 -c 2 -a 0 -i 0 -k RTR 
- -t 163.006676974 -s 2 -d -1 -p AODV -e 48 -c 2 -a 0 -i 0 -k RTR
h -t 163.006676974 -s 2 -d -1 -p AODV -e 48 -c 2 -a 0 -i 0 -k RTR
r -t 163.007845729 -s 0 -d -1 -p AODV -e 48 -c 2 -a 0 -i 0 -k RTR
+ -t 165.000000000 -s 0 -d -1 -p AODV -e 48 -c 2 -a 0 -i 0 -k RTR 
- -t 165.000000000 -s 0 -d -1 -p AODV -e 48 -c 2 -a 0 -i 0 -k RTR
h -t 165.000000000 -s 0 -d -1 -p AODV -e 48 -c 2 -a 0 -i 0 -k RTR
r -t 165.001108718 -s 2 -d -1 -p AODV -e 48 -c 2 -a 0 -i 0 -k RTR
+ -t 165.001384293 -s 2 -d -1 -p AODV -e 48 -c 2 -a 0 -i 0 -k RTR 
- -t 165.001384293 -s 2 -d -1 -p AODV -e 48 -c 2 -a 0 -i 0 -k RTR
h -t 165.001384293 -s 2 -d -1 -p AODV -e 48 -c 2 -a 0 -i 0 -k RTR
r -t 165.002633012 -s 0 -d -1 -p AODV -e 48 -c 2 -a 0 -i 0 -k RTR
+ -t 169.000000000 -s 0 -d -1 -p AODV -e 48 -c 2 -a 0 -i 0 -k RTR 
- -t 169.000000000 -s 0 -d -1 -p AODV -e 48 -c 2 -a 0 -i 0 -k RTR
h -t 169.000000000 -s 0 -d -1 -p AODV -e 48 -c 2 -a 0 -i 0 -k RTR
r -t 169.001188659 -s 2 -d -1 -p AODV -e 48 -c 2 -a 0 -i 0 -k RTR
+ -t 169.008915617 -s 2 -d -1 -p AODV -e 48 -c 2 -a 0 -i 0 -k RTR 
- -t 169.008915617 -s 2 -d -1 -p AODV -e 48 -c 2 -a 0 -i 0 -k RTR
h -t 169.008915617 -s 2 -d -1 -p AODV -e 48 -c 2 -a 0 -i 0 -k RTR
r -t 169.009884276 -s 0 -d -1 -p AODV -e 48 -c 2 -a 0 -i 0 -k RTR
+ -t 174.500000000 -s 0 -d -1 -p AODV -e 48 -c 2 -a 0 -i 0 -k RTR 
- -t 174.500000000 -s 0 -d -1 -p AODV -e 48 -c 2 -a 0 -i 0 -k RTR
h -t 174.500000000 -s 0 -d -1 -p AODV -e 48 -c 2 -a 0 -i 0 -k RTR
r -t 174.501188614 -s 2 -d -1 -p AODV -e 48 -c 2 -a 0 -i 0 -k RTR
+ -t 174.502102183 -s 2 -d -1 -p AODV -e 48 -c 2 -a 0 -i 0 -k RTR 
- -t 174.502102183 -s 2 -d -1 -p AODV -e 48 -c 2 -a 0 -i 0 -k RTR
h -t 174.502102183 -s 2 -d -1 -p AODV -e 48 -c 2 -a 0 -i 0 -k RTR
r -t 174.503090797 -s 0 -d -1 -p AODV -e 48 -c 2 -a 0 -i 0 -k RTR
r -t 174.503091004 -s 1 -d -1 -p AODV -e 48 -c 2 -a 0 -i 0 -k RTR
+ -t 174.503091004 -s 1 -d 2 -p AODV -e 44 -c 2 -a 0 -i 0 -k RTR 
- -t 174.503091004 -s 1 -d 2 -p AODV -e 44 -c 2 -a 0 -i 0 -k RTR
h -t 174.503091004 -s 1 -d 2 -p AODV -e 44 -c 2 -a 0 -i 0 -k RTR
+ -t 174.507674755 -s 2 -d 0 -p AODV -e 44 -c 2 -a 0 -i 0 -k RTR 
- -t 174.507674755 -s 2 -d 0 -p AODV -e 44 -c 2 -a 0 -i 0 -k RTR
h -t 174.507674755 -s 2 -d 0 -p AODV -e 44 -c 2 -a 0 -i 0 -k RTR
+ -t 174.513206051 -s 0 -d 2 -p tcp -e 40 -c 2 -a 0 -i 6 -k RTR 
- -t 174.513206051 -s 0 -d 2 -p tcp -e 40 -c 2 -a 0 -i 6 -k RTR
h -t 174.513206051 -s 0 -d 2 -p tcp -e 40 -c 2 -a 0 -i 6 -k RTR
+ -t 174.515091892 -s 2 -d 1 -p tcp -e 40 -c 2 -a 0 -i 6 -k RTR 
- -t 174.515091892 -s 2 -d 1 -p tcp -e 40 -c 2 -a 0 -i 6 -k RTR
h -t 174.515091892 -s 2 -d 1 -p tcp -e 40 -c 2 -a 0 -i 6 -k RTR
r -t 174.517458355 -s 1 -d 1 -p tcp -e 40 -c 2 -a 0 -i 6 -k AGT
+ -t 174.517458355 -s 1 -d -1 -p ack -e 40 -c 2 -a 0 -i 7 -k AGT 
- -t 174.517458355 -s 1 -d -1 -p ack -e 40 -c 2 -a 0 -i 7 -k AGT
h -t 174.517458355 -s 1 -d -1 -p ack -e 40 -c 2 -a 0 -i 7 -k AGT
+ -t 174.517458355 -s 1 -d 2 -p ack -e 40 -c 2 -a 0 -i 7 -k RTR 
- -t 174.517458355 -s 1 -d 2 -p ack -e 40 -c 2 -a 0 -i 7 -k RTR
h -t 174.517458355 -s 1 -d 2 -p ack -e 40 -c 2 -a 0 -i 7 -k RTR
+ -t 174.519884819 -s 2 -d 0 -p ack -e 40 -c 2 -a 0 -i 7 -k RTR 
- -t 174.519884819 -s 2 -d 0 -p ack -e 40 -c 2 -a 0 -i 7 -k RTR
h -t 174.519884819 -s 2 -d 0 -p ack -e 40 -c 2 -a 0 -i 7 -k RTR
r -t 174.522250660 -s 0 -d 0 -p ack -e 40 -c 2 -a 0 -i 7 -k AGT
+ -t 174.522250660 -s 0 -d -1 -p tcp -e 1040 -c 2 -a 0 -i 8 -k AGT 
- -t 174.522250660 -s 0 -d -1 -p tcp -e 1040 -c 2 -a 0 -i 8 -k AGT
h -t 174.522250660 -s 0 -d -1 -p tcp -e 1040 -c 2 -a 0 -i 8 -k AGT
+ -t 174.522250660 -s 0 -d 2 -p tcp -e 1040 -c 2 -a 0 -i 8 -k RTR 
- -t 174.522250660 -s 0 -d 2 -p tcp -e 1040 -c 2 -a 0 -i 8 -k RTR
h -t 174.522250660 -s 0 -d 2 -p tcp -e 1040 -c 2 -a 0 -i 8 -k RTR
+ -t 174.532376501 -s 2 -d 1 -p tcp -e 1040 -c 2 -a 0 -i 8 -k RTR 
- -t 174.532376501 -s 2 -d 1 -p tcp -e 1040 -c 2 -a 0 -i 8 -k RTR
h -t 174.532376501 -s 2 -d 1 -p tcp -e 1040 -c 2 -a 0 -i 8 -k RTR
r -t 174.542222963 -s 1 -d 1 -p tcp -e 1040 -c 2 -a 0 -i 8 -k AGT
+ -t 174.542222963 -s 1 -d -1 -p ack -e 40 -c 2 -a 0 -i 9 -k AGT 
- -t 174.542222963 -s 1 -d -1 -p ack -e 40 -c 2 -a 0 -i 9 -k AGT
h -t 174.542222963 -s 1 -d -1 -p ack -e 40 -c 2 -a 0 -i 9 -k AGT
+ -t 174.542222963 -s 1 -d 2 -p ack -e 40 -c 2 -a 0 -i 9 -k RTR 
- -t 174.542222963 -s 1 -d 2 -p ack -e 40 -c 2 -a 0 -i 9 -k RTR
h -t 174.542222963 -s 1 -d 2 -p ack -e 40 -c 2 -a 0 -i 9 -k RTR
+ -t 174.544089424 -s 2 -d 0 -p ack -e 40 -c 2 -a 0 -i 9 -k RTR 
- -t 174.544089424 -s 2 -d 0 -p ack -e 40 -c 2 -a 0 -i 9 -k RTR
h -t 174.544089424 -s 2 -d 0 -p ack -e 40 -c 2 -a 0 -i 9 -k RTR
r -t 174.546475265 -s 0 -d 0 -p ack -e 40 -c 2 -a 0 -i 9 -k AGT
+ -t 174.546475265 -s 0 -d -1 -p tcp -e 1040 -c 2 -a 0 -i 10 -k AGT 
- -t 174.546475265 -s 0 -d -1 -p tcp -e 1040 -c 2 -a 0 -i 10 -k AGT
h -t 174.546475265 -s 0 -d -1 -p tcp -e 1040 -c 2 -a 0 -i 10 -k AGT
+ -t 174.546475265 -s 0 -d -1 -p tcp -e 1040 -c 2 -a 0 -i 11 -k AGT 
- -t 174.546475265 -s 0 -d -1 -p tcp -e 1040 -c 2 -a 0 -i 11 -k AGT
h -t 174.546475265 -s 0 -d -1 -p tcp -e 1040 -c 2 -a 0 -i 11 -k AGT
+ -t 174.546475265 -s 0 -d 2 -p tcp -e 1040 -c 2 -a 0 -i 10 -k RTR 
- -t 174.546475265 -s 0 -d 2 -p tcp -e 1040 -c 2 -a 0 -i 10 -k RTR
h -t 174.546475265 -s 0 -d 2 -p tcp -e 1040 -c 2 -a 0 -i 10 -k RTR
+ -t 174.546475265 -s 0 -d 2 -p tcp -e 1040 -c 2 -a 0 -i 11 -k RTR 
- -t 174.546475265 -s 0 -d 2 -p tcp -e 1040 -c 2 -a 0 -i 11 -k RTR
h -t 174.546475265 -s 0 -d 2 -p tcp -e 1040 -c 2 -a 0 -i 11 -k RTR
+ -t 174.556481105 -s 2 -d 1 -p tcp -e 1040 -c 2 -a 0 -i 10 -k RTR 
- -t 174.556481105 -s 2 -d 1 -p tcp -e 1040 -c 2 -a 0 -i 10 -k RTR
h -t 174.556481105 -s 2 -d 1 -p tcp -e 1040 -c 2 -a 0 -i 10 -k RTR
+ -t 174.566707559 -s 2 -d 1 -p tcp -e 1040 -c 2 -a 0 -i 11 -k RTR 
- -t 174.566707559 -s 2 -d 1 -p tcp -e 1040 -c 2 -a 0 -i 11 -k RTR
h -t 174.566707559 -s 2 -d 1 -p tcp -e 1040 -c 2 -a 0 -i 11 -k RTR
r -t 174.576574018 -s 1 -d 1 -p tcp -e 1040 -c 2 -a 0 -i 10 -k AGT
+ -t 174.576574018 -s 1 -d -1 -p ack -e 40 -c 2 -a 0 -i 12 -k AGT 
- -t 174.576574018 -s 1 -d -1 -p ack -e 40 -c 2 -a 0 -i 12 -k AGT
h -t 174.576574018 -s 1 -d -1 -p ack -e 40 -c 2 -a 0 -i 12 -k AGT
+ -t 174.576574018 -s 1 -d 2 -p ack -e 40 -c 2 -a 0 -i 12 -k RTR 
- -t 174.576574018 -s 1 -d 2 -p ack -e 40 -c 2 -a 0 -i 12 -k RTR
h -t 174.576574018 -s 1 -d 2 -p ack -e 40 -c 2 -a 0 -i 12 -k RTR
+ -t 174.578560477 -s 2 -d 0 -p ack -e 40 -c 2 -a 0 -i 12 -k RTR 
- -t 174.578560477 -s 2 -d 0 -p ack -e 40 -c 2 -a 0 -i 12 -k RTR
h -t 174.578560477 -s 2 -d 0 -p ack -e 40 -c 2 -a 0 -i 12 -k RTR
r -t 174.588466935 -s 1 -d 1 -p tcp -e 1040 -c 2 -a 0 -i 11 -k AGT
+ -t 174.588466935 -s 1 -d -1 -p ack -e 40 -c 2 -a 0 -i 13 -k AGT 
- -t 174.588466935 -s 1 -d -1 -p ack -e 40 -c 2 -a 0 -i 13 -k AGT
h -t 174.588466935 -s 1 -d -1 -p ack -e 40 -c 2 -a 0 -i 13 -k AGT
+ -t 174.588466935 -s 1 -d 2 -p ack -e 40 -c 2 -a 0 -i 13 -k RTR 
- -t 174.588466935 -s 1 -d 2 -p ack -e 40 -c 2 -a 0 -i 13 -k RTR
h -t 174.588466935 -s 1 -d 2 -p ack -e 40 -c 2 -a 0 -i 13 -k RTR
+ -t 174.590433392 -s 2 -d 0 -p ack -e 40 -c 2 -a 0 -i 13 -k RTR 
- -t 174.590433392 -s 2 -d 0 -p ack -e 40 -c 2 -a 0 -i 13 -k RTR
h -t 174.590433392 -s 2 -d 0 -p ack -e 40 -c 2 -a 0 -i 13 -k RTR
r -t 174.592499232 -s 0 -d 0 -p ack -e 40 -c 2 -a 0 -i 12 -k AGT
+ -t 174.592499232 -s 0 -d -1 -p tcp -e 1040 -c 2 -a 0 -i 14 -k AGT 
- -t 174.592499232 -s 0 -d -1 -p tcp -e 1040 -c 2 -a 0 -i 14 -k AGT
h -t 174.592499232 -s 0 -d -1 -p tcp -e 1040 -c 2 -a 0 -i 14 -k AGT
+ -t 174.592499232 -s 0 -d 2 -p tcp -e 1040 -c 2 -a 0 -i 14 -k RTR 
- -t 174.592499232 -s 0 -d 2 -p tcp -e 1040 -c 2 -a 0 -i 14 -k RTR
h -t 174.592499232 -s 0 -d 2 -p tcp -e 1040 -c 2 -a 0 -i 14 -k RTR
+ -t 174.602745072 -s 2 -d 1 -p tcp -e 1040 -c 2 -a 0 -i 14 -k RTR 
- -t 174.602745072 -s 2 -d 1 -p tcp -e 1040 -c 2 -a 0 -i 14 -k RTR
h -t 174.602745072 -s 2 -d 1 -p tcp -e 1040 -c 2 -a 0 -i 14 -k RTR
r -t 174.604670912 -s 0 -d 0 -p ack -e 40 -c 2 -a 0 -i 13 -k AGT
+ -t 174.604670912 -s 0 -d -1 -p tcp -e 1040 -c 2 -a 0 -i 15 -k AGT 
- -t 174.604670912 -s 0 -d -1 -p tcp -e 1040 -c 2 -a 0 -i 15 -k AGT
h -t 174.604670912 -s 0 -d -1 -p tcp -e 1040 -c 2 -a 0 -i 15 -k AGT
+ -t 174.604670912 -s 0 -d 2 -p tcp -e 1040 -c 2 -a 0 -i 15 -k RTR 
- -t 174.604670912 -s 0 -d 2 -p tcp -e 1040 -c 2 -a 0 -i 15 -k RTR
h -t 174.604670912 -s 0 -d 2 -p tcp -e 1040 -c 2 -a 0 -i 15 -k RTR
r -t 174.614657981 -s 1 -d 1 -p tcp -e 1040 -c 2 -a 0 -i 14 -k AGT
+ -t 174.614657981 -s 1 -d -1 -p ack -e 40 -c 2 -a 0 -i 16 -k AGT 
- -t 174.614657981 -s 1 -d -1 -p ack -e 40 -c 2 -a 0 -i 16 -k AGT
h -t 174.614657981 -s 1 -d -1 -p ack -e 40 -c 2 -a 0 -i 16 -k AGT
+ -t 174.614657981 -s 1 -d 2 -p ack -e 40 -c 2 -a 0 -i 16 -k RTR 
- -t 174.614657981 -s 1 -d 2 -p ack -e 40 -c 2 -a 0 -i 16 -k RTR
h -t 174.614657981 -s 1 -d 2 -p ack -e 40 -c 2 -a 0 -i 16 -k RTR
+ -t 174.616504436 -s 2 -d 0 -p ack -e 40 -c 2 -a 0 -i 16 -k RTR 
- -t 174.616504436 -s 2 -d 0 -p ack -e 40 -c 2 -a 0 -i 16 -k RTR
h -t 174.616504436 -s 2 -d 0 -p ack -e 40 -c 2 -a 0 -i 16 -k RTR
r -t 174.618350276 -s 0 -d 0 -p ack -e 40 -c 2 -a 0 -i 16 -k AGT
+ -t 174.618350276 -s 0 -d -1 -p tcp -e 1040 -c 2 -a 0 -i 17 -k AGT 
- -t 174.618350276 -s 0 -d -1 -p tcp -e 1040 -c 2 -a 0 -i 17 -k AGT
h -t 174.618350276 -s 0 -d -1 -p tcp -e 1040 -c 2 -a 0 -i 17 -k AGT
+ -t 174.618350276 -s 0 -d -1 -p tcp -e 1040 -c 2 -a 0 -i 18 -k AGT 
- -t 174.618350276 -s 0 -d -1 -p tcp -e 1040 -c 2 -a 0 -i 18 -k AGT
h -t 174.618350276 -s 0 -d -1 -p tcp -e 1040 -c 2 -a 0 -i 18 -k AGT
+ -t 174.618350276 -s 0 -d 2 -p tcp -e 1040 -c 2 -a 0 -i 17 -k RTR 
- -t 174.618350276 -s 0 -d 2 -p tcp -e 1040 -c 2 -a 0 -i 17 -k RTR
h -t 174.618350276 -s 0 -d 2 -p tcp -e 1040 -c 2 -a 0 -i 17 -k RTR
+ -t 174.618350276 -s 0 -d 2 -p tcp -e 1040 -c 2 -a 0 -i 18 -k RTR 
- -t 174.618350276 -s 0 -d 2 -p tcp -e 1040 -c 2 -a 0 -i 18 -k RTR
h -t 174.618350276 -s 0 -d 2 -p tcp -e 1040 -c 2 -a 0 -i 18 -k RTR
+ -t 174.628256116 -s 2 -d 1 -p tcp -e 1040 -c 2 -a 0 -i 15 -k RTR 
- -t 174.628256116 -s 2 -d 1 -p tcp -e 1040 -c 2 -a 0 -i 15 -k RTR
h -t 174.628256116 -s 2 -d 1 -p tcp -e 1040 -c 2 -a 0 -i 15 -k RTR
+ -t 174.638082569 -s 2 -d 1 -p tcp -e 1040 -c 2 -a 0 -i 17 -k RTR 
- -t 174.638082569 -s 2 -d 1 -p tcp -e 1040 -c 2 -a 0 -i 17 -k RTR
h -t 174.638082569 -s 2 -d 1 -p tcp -e 1040 -c 2 -a 0 -i 17 -k RTR
r -t 174.647949022 -s 1 -d 1 -p tcp -e 1040 -c 2 -a 0 -i 15 -k AGT
+ -t 174.647949022 -s 1 -d -1 -p ack -e 40 -c 2 -a 0 -i 19 -k AGT 
- -t 174.647949022 -s 1 -d -1 -p ack -e 40 -c 2 -a 0 -i 19 -k AGT
h -t 174.647949022 -s 1 -d -1 -p ack -e 40 -c 2 -a 0 -i 19 -k AGT
+ -t 174.647949022 -s 1 -d 2 -p ack -e 40 -c 2 -a 0 -i 19 -k RTR 
- -t 174.647949022 -s 1 -d 2 -p ack -e 40 -c 2 -a 0 -i 19 -k RTR
h -t 174.647949022 -s 1 -d 2 -p ack -e 40 -c 2 -a 0 -i 19 -k RTR
+ -t 174.650035474 -s 2 -d 0 -p ack -e 40 -c 2 -a 0 -i 19 -k RTR 
- -t 174.650035474 -s 2 -d 0 -p ack -e 40 -c 2 -a 0 -i 19 -k RTR
h -t 174.650035474 -s 2 -d 0 -p ack -e 40 -c 2 -a 0 -i 19 -k RTR
+ -t 174.659951702 -s 2 -d 1 -p tcp -e 1040 -c 2 -a 0 -i 18 -k RTR 
- -t 174.659951702 -s 2 -d 1 -p tcp -e 1040 -c 2 -a 0 -i 18 -k RTR
h -t 174.659951702 -s 2 -d 1 -p tcp -e 1040 -c 2 -a 0 -i 18 -k RTR
r -t 174.669978153 -s 1 -d 1 -p tcp -e 1040 -c 2 -a 0 -i 17 -k AGT
+ -t 174.669978153 -s 1 -d -1 -p ack -e 40 -c 2 -a 0 -i 20 -k AGT 
- -t 174.669978153 -s 1 -d -1 -p ack -e 40 -c 2 -a 0 -i 20 -k AGT
h -t 174.669978153 -s 1 -d -1 -p ack -e 40 -c 2 -a 0 -i 20 -k AGT
+ -t 174.669978153 -s 1 -d 2 -p ack -e 40 -c 2 -a 0 -i 20 -k RTR 
- -t 174.669978153 -s 1 -d 2 -p ack -e 40 -c 2 -a 0 -i 20 -k RTR
h -t 174.669978153 -s 1 -d 2 -p ack -e 40 -c 2 -a 0 -i 20 -k RTR
r -t 174.671824809 -s 0 -d 0 -p ack -e 40 -c 2 -a 0 -i 19 -k AGT
+ -t 174.671824809 -s 0 -d -1 -p tcp -e 1040 -c 2 -a 0 -i 21 -k AGT 
- -t 174.671824809 -s 0 -d -1 -p tcp -e 1040 -c 2 -a 0 -i 21 -k AGT
h -t 174.671824809 -s 0 -d -1 -p tcp -e 1040 -c 2 -a 0 -i 21 -k AGT
+ -t 174.671824809 -s 0 -d 2 -p tcp -e 1040 -c 2 -a 0 -i 21 -k RTR 
- -t 174.671824809 -s 0 -d 2 -p tcp -e 1040 -c 2 -a 0 -i 21 -k RTR
h -t 174.671824809 -s 0 -d 2 -p tcp -e 1040 -c 2 -a 0 -i 21 -k RTR
r -t 174.681671872 -s 1 -d 1 -p tcp -e 1040 -c 2 -a 0 -i 18 -k AGT
+ -t 174.681671872 -s 1 -d -1 -p ack -e 40 -c 2 -a 0 -i 22 -k AGT 
- -t 174.681671872 -s 1 -d -1 -p ack -e 40 -c 2 -a 0 -i 22 -k AGT
h -t 174.681671872 -s 1 -d -1 -p ack -e 40 -c 2 -a 0 -i 22 -k AGT
+ -t 174.681671872 -s 1 -d 2 -p ack -e 40 -c 2 -a 0 -i 22 -k RTR 
- -t 174.681671872 -s 1 -d 2 -p ack -e 40 -c 2 -a 0 -i 22 -k RTR
h -t 174.681671872 -s 1 -d 2 -p ack -e 40 -c 2 -a 0 -i 22 -k RTR
+ -t 174.683858322 -s 2 -d 0 -p ack -e 40 -c 2 -a 0 -i 20 -k RTR 
- -t 174.683858322 -s 2 -d 0 -p ack -e 40 -c 2 -a 0 -i 20 -k RTR
h -t 174.683858322 -s 2 -d 0 -p ack -e 40 -c 2 -a 0 -i 20 -k RTR
+ -t 174.685705587 -s 2 -d 0 -p ack -e 40 -c 2 -a 0 -i 22 -k RTR 
- -t 174.685705587 -s 2 -d 0 -p ack -e 40 -c 2 -a 0 -i 22 -k RTR
h -t 174.685705587 -s 2 -d 0 -p ack -e 40 -c 2 -a 0 -i 22 -k RTR
r -t 174.687771426 -s 0 -d 0 -p ack -e 40 -c 2 -a 0 -i 20 -k AGT
+ -t 174.687771426 -s 0 -d -1 -p tcp -e 1040 -c 2 -a 0 -i 23 -k AGT 
- -t 174.687771426 -s 0 -d -1 -p tcp -e 1040 -c 2 -a 0 -i 23 -k AGT
h -t 174.687771426 -s 0 -d -1 -p tcp -e 1040 -c 2 -a 0 -i 23 -k AGT
+ -t 174.687771426 -s 0 -d 2 -p tcp -e 1040 -c 2 -a 0 -i 23 -k RTR 
- -t 174.687771426 -s 0 -d 2 -p tcp -e 1040 -c 2 -a 0 -i 23 -k RTR
h -t 174.687771426 -s 0 -d 2 -p tcp -e 1040 -c 2 -a 0 -i 23 -k RTR
+ -t 174.697637265 -s 2 -d 1 -p tcp -e 1040 -c 2 -a 0 -i 21 -k RTR 
- -t 174.697637265 -s 2 -d 1 -p tcp -e 1040 -c 2 -a 0 -i 21 -k RTR
h -t 174.697637265 -s 2 -d 1 -p tcp -e 1040 -c 2 -a 0 -i 21 -k RTR
r -t 174.699823104 -s 0 -d 0 -p ack -e 40 -c 2 -a 0 -i 22 -k AGT
+ -t 174.699823104 -s 0 -d -1 -p tcp -e 1040 -c 2 -a 0 -i 24 -k AGT 
- -t 174.699823104 -s 0 -d -1 -p tcp -e 1040 -c 2 -a 0 -i 24 -k AGT
h -t 174.699823104 -s 0 -d -1 -p tcp -e 1040 -c 2 -a 0 -i 24 -k AGT
+ -t 174.699823104 -s 0 -d -1 -p tcp -e 1040 -c 2 -a 0 -i 25 -k AGT 
- -t 174.699823104 -s 0 -d -1 -p tcp -e 1040 -c 2 -a 0 -i 25 -k AGT
h -t 174.699823104 -s 0 -d -1 -p tcp -e 1040 -c 2 -a 0 -i 25 -k AGT
+ -t 174.699823104 -s 0 -d 2 -p tcp -e 1040 -c 2 -a 0 -i 24 -k RTR 
- -t 174.699823104 -s 0 -d 2 -p tcp -e 1040 -c 2 -a 0 -i 24 -k RTR
h -t 174.699823104 -s 0 -d 2 -p tcp -e 1040 -c 2 -a 0 -i 24 -k RTR
+ -t 174.699823104 -s 0 -d 2 -p tcp -e 1040 -c 2 -a 0 -i 25 -k RTR 
- -t 174.699823104 -s 0 -d 2 -p tcp -e 1040 -c 2 -a 0 -i 25 -k RTR
h -t 174.699823104 -s 0 -d 2 -p tcp -e 1040 -c 2 -a 0 -i 25 -k RTR
+ -t 174.709748943 -s 2 -d 1 -p tcp -e 1040 -c 2 -a 0 -i 23 -k RTR 
- -t 174.709748943 -s 2 -d 1 -p tcp -e 1040 -c 2 -a 0 -i 23 -k RTR
h -t 174.709748943 -s 2 -d 1 -p tcp -e 1040 -c 2 -a 0 -i 23 -k RTR
r -t 174.719875389 -s 1 -d 1 -p tcp -e 1040 -c 2 -a 0 -i 21 -k AGT
+ -t 174.719875389 -s 1 -d -1 -p ack -e 40 -c 2 -a 0 -i 26 -k AGT 
- -t 174.719875389 -s 1 -d -1 -p ack -e 40 -c 2 -a 0 -i 26 -k AGT
h -t 174.719875389 -s 1 -d -1 -p ack -e 40 -c 2 -a 0 -i 26 -k AGT
+ -t 174.719875389 -s 1 -d 2 -p ack -e 40 -c 2 -a 0 -i 26 -k RTR 
- -t 174.719875389 -s 1 -d 2 -p ack -e 40 -c 2 -a 0 -i 26 -k RTR
h -t 174.719875389 -s 1 -d 2 -p ack -e 40 -c 2 -a 0 -i 26 -k RTR
r -t 174.729882651 -s 1 -d 1 -p tcp -e 1040 -c 2 -a 0 -i 23 -k AGT
+ -t 174.729882651 -s 1 -d -1 -p ack -e 40 -c 2 -a 0 -i 27 -k AGT 
- -t 174.729882651 -s 1 -d -1 -p ack -e 40 -c 2 -a 0 -i 27 -k AGT
h -t 174.729882651 -s 1 -d -1 -p ack -e 40 -c 2 -a 0 -i 27 -k AGT
+ -t 174.729882651 -s 1 -d 2 -p ack -e 40 -c 2 -a 0 -i 27 -k RTR 
- -t 174.729882651 -s 1 -d 2 -p ack -e 40 -c 2 -a 0 -i 27 -k RTR
h -t 174.729882651 -s 1 -d 2 -p ack -e 40 -c 2 -a 0 -i 27 -k RTR
+ -t 174.731849096 -s 2 -d 0 -p ack -e 40 -c 2 -a 0 -i 26 -k RTR 
- -t 174.731849096 -s 2 -d 0 -p ack -e 40 -c 2 -a 0 -i 26 -k RTR
h -t 174.731849096 -s 2 -d 0 -p ack -e 40 -c 2 -a 0 -i 26 -k RTR
+ -t 174.733856356 -s 2 -d 0 -p ack -e 40 -c 2 -a 0 -i 27 -k RTR 
- -t 174.733856356 -s 2 -d 0 -p ack -e 40 -c 2 -a 0 -i 27 -k RTR
h -t 174.733856356 -s 2 -d 0 -p ack -e 40 -c 2 -a 0 -i 27 -k RTR
+ -t 174.743812585 -s 2 -d 1 -p tcp -e 1040 -c 2 -a 0 -i 24 -k RTR 
- -t 174.743812585 -s 2 -d 1 -p tcp -e 1040 -c 2 -a 0 -i 24 -k RTR
h -t 174.743812585 -s 2 -d 1 -p tcp -e 1040 -c 2 -a 0 -i 24 -k RTR
r -t 174.745758424 -s 0 -d 0 -p ack -e 40 -c 2 -a 0 -i 26 -k AGT
+ -t 174.745758424 -s 0 -d -1 -p tcp -e 1040 -c 2 -a 0 -i 28 -k AGT 
- -t 174.745758424 -s 0 -d -1 -p tcp -e 1040 -c 2 -a 0 -i 28 -k AGT
h -t 174.745758424 -s 0 -d -1 -p tcp -e 1040 -c 2 -a 0 -i 28 -k AGT
+ -t 174.745758424 -s 0 -d 2 -p tcp -e 1040 -c 2 -a 0 -i 28 -k RTR 
- -t 174.745758424 -s 0 -d 2 -p tcp -e 1040 -c 2 -a 0 -i 28 -k RTR
h -t 174.745758424 -s 0 -d 2 -p tcp -e 1040 -c 2 -a 0 -i 28 -k RTR
r -t 174.747584875 -s 0 -d 0 -p ack -e 40 -c 2 -a 0 -i 27 -k AGT
+ -t 174.747584875 -s 0 -d -1 -p tcp -e 1040 -c 2 -a 0 -i 29 -k AGT 
- -t 174.747584875 -s 0 -d -1 -p tcp -e 1040 -c 2 -a 0 -i 29 -k AGT
h -t 174.747584875 -s 0 -d -1 -p tcp -e 1040 -c 2 -a 0 -i 29 -k AGT
+ -t 174.747584875 -s 0 -d 2 -p tcp -e 1040 -c 2 -a 0 -i 29 -k RTR 
- -t 174.747584875 -s 0 -d 2 -p tcp -e 1040 -c 2 -a 0 -i 29 -k RTR
h -t 174.747584875 -s 0 -d 2 -p tcp -e 1040 -c 2 -a 0 -i 29 -k RTR
r -t 174.757511931 -s 1 -d 1 -p tcp -e 1040 -c 2 -a 0 -i 24 -k AGT
+ -t 174.757511931 -s 1 -d -1 -p ack -e 40 -c 2 -a 0 -i 30 -k AGT 
- -t 174.757511931 -s 1 -d -1 -p ack -e 40 -c 2 -a 0 -i 30 -k AGT
h -t 174.757511931 -s 1 -d -1 -p ack -e 40 -c 2 -a 0 -i 30 -k AGT
+ -t 174.757511931 -s 1 -d 2 -p ack -e 40 -c 2 -a 0 -i 30 -k RTR 
- -t 174.757511931 -s 1 -d 2 -p ack -e 40 -c 2 -a 0 -i 30 -k RTR
h -t 174.757511931 -s 1 -d 2 -p ack -e 40 -c 2 -a 0 -i 30 -k RTR
+ -t 174.759338374 -s 2 -d 0 -p ack -e 40 -c 2 -a 0 -i 30 -k RTR 
- -t 174.759338374 -s 2 -d 0 -p ack -e 40 -c 2 -a 0 -i 30 -k RTR
h -t 174.759338374 -s 2 -d 0 -p ack -e 40 -c 2 -a 0 -i 30 -k RTR
+ -t 174.769254604 -s 2 -d 1 -p tcp -e 1040 -c 2 -a 0 -i 25 -k RTR 
- -t 174.769254604 -s 2 -d 1 -p tcp -e 1040 -c 2 -a 0 -i 25 -k RTR
h -t 174.769254604 -s 2 -d 1 -p tcp -e 1040 -c 2 -a 0 -i 25 -k RTR
r -t 174.771540442 -s 0 -d 0 -p ack -e 40 -c 2 -a 0 -i 30 -k AGT
+ -t 174.771540442 -s 0 -d -1 -p tcp -e 1040 -c 2 -a 0 -i 31 -k AGT 
- -t 174.771540442 -s 0 -d -1 -p tcp -e 1040 -c 2 -a 0 -i 31 -k AGT
h -t 174.771540442 -s 0 -d -1 -p tcp -e 1040 -c 2 -a 0 -i 31 -k AGT
+ -t 174.771540442 -s 0 -d 2 -p tcp -e 1040 -c 2 -a 0 -i 31 -k RTR 
- -t 174.771540442 -s 0 -d 2 -p tcp -e 1040 -c 2 -a 0 -i 31 -k RTR
h -t 174.771540442 -s 0 -d 2 -p tcp -e 1040 -c 2 -a 0 -i 31 -k RTR
+ -t 174.781506280 -s 2 -d 1 -p tcp -e 1040 -c 2 -a 0 -i 28 -k RTR 
- -t 174.781506280 -s 2 -d 1 -p tcp -e 1040 -c 2 -a 0 -i 28 -k RTR
h -t 174.781506280 -s 2 -d 1 -p tcp -e 1040 -c 2 -a 0 -i 28 -k RTR
+ -t 174.791552730 -s 2 -d 1 -p tcp -e 1040 -c 2 -a 0 -i 29 -k RTR 
- -t 174.791552730 -s 2 -d 1 -p tcp -e 1040 -c 2 -a 0 -i 29 -k RTR
h -t 174.791552730 -s 2 -d 1 -p tcp -e 1040 -c 2 -a 0 -i 29 -k RTR
r -t 174.801619170 -s 1 -d 1 -p tcp -e 1040 -c 2 -a 0 -i 25 -k AGT
+ -t 174.801619170 -s 1 -d -1 -p ack -e 40 -c 2 -a 0 -i 32 -k AGT 
- -t 174.801619170 -s 1 -d -1 -p ack -e 40 -c 2 -a 0 -i 32 -k AGT
h -t 174.801619170 -s 1 -d -1 -p ack -e 40 -c 2 -a 0 -i 32 -k AGT
+ -t 174.801619170 -s 1 -d 2 -p ack -e 40 -c 2 -a 0 -i 32 -k RTR 
- -t 174.801619170 -s 1 -d 2 -p ack -e 40 -c 2 -a 0 -i 32 -k RTR
h -t 174.801619170 -s 1 -d 2 -p ack -e 40 -c 2 -a 0 -i 32 -k RTR
+ -t 174.803585609 -s 2 -d 0 -p ack -e 40 -c 2 -a 0 -i 32 -k RTR 
- -t 174.803585609 -s 2 -d 0 -p ack -e 40 -c 2 -a 0 -i 32 -k RTR
h -t 174.803585609 -s 2 -d 0 -p ack -e 40 -c 2 -a 0 -i 32 -k RTR
r -t 174.813532048 -s 1 -d 1 -p tcp -e 1040 -c 2 -a 0 -i 28 -k AGT
+ -t 174.813532048 -s 1 -d -1 -p ack -e 40 -c 2 -a 0 -i 33 -k AGT 
- -t 174.813532048 -s 1 -d -1 -p ack -e 40 -c 2 -a 0 -i 33 -k AGT
h -t 174.813532048 -s 1 -d -1 -p ack -e 40 -c 2 -a 0 -i 33 -k AGT
+ -t 174.813532048 -s 1 -d 2 -p ack -e 40 -c 2 -a 0 -i 33 -k RTR 
- -t 174.813532048 -s 1 -d 2 -p ack -e 40 -c 2 -a 0 -i 33 -k RTR
h -t 174.813532048 -s 1 -d 2 -p ack -e 40 -c 2 -a 0 -i 33 -k RTR
r -t 174.823459298 -s 1 -d 1 -p tcp -e 1040 -c 2 -a 0 -i 29 -k AGT
+ -t 174.823459298 -s 1 -d -1 -p ack -e 40 -c 2 -a 0 -i 34 -k AGT 
- -t 174.823459298 -s 1 -d -1 -p ack -e 40 -c 2 -a 0 -i 34 -k AGT
h -t 174.823459298 -s 1 -d -1 -p ack -e 40 -c 2 -a 0 -i 34 -k AGT
+ -t 174.823459298 -s 1 -d 2 -p ack -e 40 -c 2 -a 0 -i 34 -k RTR 
- -t 174.823459298 -s 1 -d 2 -p ack -e 40 -c 2 -a 0 -i 34 -k RTR
h -t 174.823459298 -s 1 -d 2 -p ack -e 40 -c 2 -a 0 -i 34 -k RTR
r -t 174.825465948 -s 0 -d 0 -p ack -e 40 -c 2 -a 0 -i 32 -k AGT
+ -t 174.825465948 -s 0 -d -1 -p tcp -e 1040 -c 2 -a 0 -i 35 -k AGT 
- -t 174.825465948 -s 0 -d -1 -p tcp -e 1040 -c 2 -a 0 -i 35 -k AGT
h -t 174.825465948 -s 0 -d -1 -p tcp -e 1040 -c 2 -a 0 -i 35 -k AGT
+ -t 174.825465948 -s 0 -d 2 -p tcp -e 1040 -c 2 -a 0 -i 35 -k RTR 
- -t 174.825465948 -s 0 -d 2 -p tcp -e 1040 -c 2 -a 0 -i 35 -k RTR
h -t 174.825465948 -s 0 -d 2 -p tcp -e 1040 -c 2 -a 0 -i 35 -k RTR
+ -t 174.835531786 -s 2 -d 1 -p tcp -e 1040 -c 2 -a 0 -i 31 -k RTR 
- -t 174.835531786 -s 2 -d 1 -p tcp -e 1040 -c 2 -a 0 -i 31 -k RTR
h -t 174.835531786 -s 2 -d 1 -p tcp -e 1040 -c 2 -a 0 -i 31 -k RTR
+ -t 174.837548815 -s 2 -d 0 -p ack -e 40 -c 2 -a 0 -i 33 -k RTR 
- -t 174.837548815 -s 2 -d 0 -p ack -e 40 -c 2 -a 0 -i 33 -k RTR
h -t 174.837548815 -s 2 -d 0 -p ack -e 40 -c 2 -a 0 -i 33 -k RTR
r -t 174.847575251 -s 1 -d 1 -p tcp -e 1040 -c 2 -a 0 -i 31 -k AGT
+ -t 174.847575251 -s 1 -d -1 -p ack -e 40 -c 2 -a 0 -i 36 -k AGT 
- -t 174.847575251 -s 1 -d -1 -p ack -e 40 -c 2 -a 0 -i 36 -k AGT
h -t 174.847575251 -s 1 -d -1 -p ack -e 40 -c 2 -a 0 -i 36 -k AGT